 Entering Gaussian System, Link 0=g16
 Input=F-b3lyp-d3-6-311+G**.gjf
 Output=F-b3lyp-d3-6-311+G**.log
 Initial command:
 /home/tmj/soft/g16/l1.exe "/home/tmj/soft/g16temp/Gau-602093.inp" -scrdir="/home/tmj/soft/g16temp/"
 Entering Link 1 = /home/tmj/soft/g16/l1.exe PID=    602095.
  
 Copyright (c) 1988-2019, Gaussian, Inc.  All Rights Reserved.
  
 This is part of the Gaussian(R) 16 program.  It is based on
 the Gaussian(R) 09 system (copyright 2009, Gaussian, Inc.),
 the Gaussian(R) 03 system (copyright 2003, Gaussian, Inc.),
 the Gaussian(R) 98 system (copyright 1998, Gaussian, Inc.),
 the Gaussian(R) 94 system (copyright 1995, Gaussian, Inc.),
 the Gaussian 92(TM) system (copyright 1992, Gaussian, Inc.),
 the Gaussian 90(TM) system (copyright 1990, Gaussian, Inc.),
 the Gaussian 88(TM) system (copyright 1988, Gaussian, Inc.),
 the Gaussian 86(TM) system (copyright 1986, Carnegie Mellon
 University), and the Gaussian 82(TM) system (copyright 1983,
 Carnegie Mellon University). Gaussian is a federally registered
 trademark of Gaussian, Inc.
  
 This software contains proprietary and confidential information,
 including trade secrets, belonging to Gaussian, Inc.
  
 This software is provided under written license and may be
 used, copied, transmitted, or stored only in accord with that
 written license.
  
 The following legend is applicable only to US Government
 contracts under FAR:
  
                    RESTRICTED RIGHTS LEGEND
  
 Use, reproduction and disclosure by the US Government is
 subject to restrictions as set forth in subparagraphs (a)
 and (c) of the Commercial Computer Software - Restricted
 Rights clause in FAR 52.227-19.
  
 Gaussian, Inc.
 340 Quinnipiac St., Bldg. 40, Wallingford CT 06492
  
  
 ---------------------------------------------------------------
 Warning -- This program may not be used in any manner that
 competes with the business of Gaussian, Inc. or will provide
 assistance to any competitor of Gaussian, Inc.  The licensee
 of this program is prohibited from giving any competitor of
 Gaussian, Inc. access to this program.  By using this program,
 the user acknowledges that Gaussian, Inc. is engaged in the
 business of creating and licensing software in the field of
 computational chemistry and represents and warrants to the
 licensee that it is not a competitor of Gaussian, Inc. and that
 it will not use this program in any manner prohibited above.
 ---------------------------------------------------------------
  

 Cite this work as:
 Gaussian 16, Revision C.01,
 M. J. Frisch, G. W. Trucks, H. B. Schlegel, G. E. Scuseria, 
 M. A. Robb, J. R. Cheeseman, G. Scalmani, V. Barone, 
 G. A. Petersson, H. Nakatsuji, X. Li, M. Caricato, A. V. Marenich, 
 J. Bloino, B. G. Janesko, R. Gomperts, B. Mennucci, H. P. Hratchian, 
 J. V. Ortiz, A. F. Izmaylov, J. L. Sonnenberg, D. Williams-Young, 
 F. Ding, F. Lipparini, F. Egidi, J. Goings, B. Peng, A. Petrone, 
 T. Henderson, D. Ranasinghe, V. G. Zakrzewski, J. Gao, N. Rega, 
 G. Zheng, W. Liang, M. Hada, M. Ehara, K. Toyota, R. Fukuda, 
 J. Hasegawa, M. Ishida, T. Nakajima, Y. Honda, O. Kitao, H. Nakai, 
 T. Vreven, K. Throssell, J. A. Montgomery, Jr., J. E. Peralta, 
 F. Ogliaro, M. J. Bearpark, J. J. Heyd, E. N. Brothers, K. N. Kudin, 
 V. N. Staroverov, T. A. Keith, R. Kobayashi, J. Normand, 
 K. Raghavachari, A. P. Rendell, J. C. Burant, S. S. Iyengar, 
 J. Tomasi, M. Cossi, J. M. Millam, M. Klene, C. Adamo, R. Cammi, 
 J. W. Ochterski, R. L. Martin, K. Morokuma, O. Farkas, 
 J. B. Foresman, and D. J. Fox, Gaussian, Inc., Wallingford CT, 2019.
 
 ******************************************
 Gaussian 16:  ES64L-G16RevC.01  3-Jul-2019
                19-May-2024 
 ******************************************
 %nproc=28
 Will use up to   28 processors via shared memory.
 %mem=56GB
 --------------------------------
 #p freq b3lyp/6-311+g** em=gd3bj
 --------------------------------
 1/10=4,30=1,38=1/1,3;
 2/12=2,17=6,18=5,40=1/2;
 3/5=4,6=6,7=111,11=2,25=1,30=1,71=2,74=-5,124=41,140=1/1,2,3;
 4//1;
 5/5=2,38=5,98=1/2;
 8/6=4,10=90,11=11/1;
 11/6=1,8=1,9=11,15=111,16=1/1,2,10;
 10/6=1/2;
 6/7=2,8=2,9=2,10=2,28=1/1;
 7/8=1,10=1,25=1/1,2,3,16;
 1/10=4,30=1/3;
 99//99;
 Leave Link    1 at Sun May 19 14:52:22 2024, MaxMem=  7516192768 cpu:               0.4 elap:               0.0
 (Enter /home/tmj/soft/g16/l101.exe)
 ---------------------------
 Title: F-b3lyp-d3-6-311+g**
 ---------------------------
 Symbolic Z-matrix:
 Charge =  0 Multiplicity = 2
 F                     0.        0.        0. 
 
 ITRead=  0
 MicOpt= -1
 NAtoms=      1 NQM=        1 NQMF=       0 NMMI=      0 NMMIF=      0
                NMic=       0 NMicF=      0.
                    Isotopes and Nuclear Properties:
 (Nuclear quadrupole moments (NQMom) in fm**2, nuclear magnetic moments (NMagM)
  in nuclear magnetons)

  Atom         1
 IAtWgt=          19
 AtmWgt=  18.9984032
 NucSpn=           1
 AtZEff=  -0.0000000
 NQMom=    0.0000000
 NMagM=    2.6288670
 AtZNuc=   9.0000000
 Leave Link  101 at Sun May 19 14:52:23 2024, MaxMem=  7516192768 cpu:               1.4 elap:               0.1
 (Enter /home/tmj/soft/g16/l103.exe)

 GradGradGradGradGradGradGradGradGradGradGradGradGradGradGradGradGradGrad
 Berny optimization.
 Initialization pass.
 Trust Radius=3.00D-01 FncErr=1.00D-07 GrdErr=1.00D-07 EigMax=2.50D+02 EigMin=1.00D-04
 Number of steps in this run=      2 maximum allowed number of steps=      2.
 GradGradGradGradGradGradGradGradGradGradGradGradGradGradGradGradGradGrad

 Leave Link  103 at Sun May 19 14:52:23 2024, MaxMem=  7516192768 cpu:               0.4 elap:               0.0
 (Enter /home/tmj/soft/g16/l202.exe)
                          Input orientation:                          
 ---------------------------------------------------------------------
 Center     Atomic      Atomic             Coordinates (Angstroms)
 Number     Number       Type             X           Y           Z
 ---------------------------------------------------------------------
      1          9           0        0.000000    0.000000    0.000000
 ---------------------------------------------------------------------
 Stoichiometry    F(2)
 Framework group  OH[O(F)]
 Deg. of freedom     0
 Full point group                 OH      NOp  48
 Largest Abelian subgroup         D2H     NOp   8
 Largest concise Abelian subgroup C1      NOp   1
                         Standard orientation:                         
 ---------------------------------------------------------------------
 Center     Atomic      Atomic             Coordinates (Angstroms)
 Number     Number       Type             X           Y           Z
 ---------------------------------------------------------------------
      1          9           0        0.000000    0.000000    0.000000
 ---------------------------------------------------------------------
 Leave Link  202 at Sun May 19 14:52:23 2024, MaxMem=  7516192768 cpu:               0.6 elap:               0.0
 (Enter /home/tmj/soft/g16/l301.exe)
 Standard basis: 6-311+G(d,p) (5D, 7F)
 Ernie: Thresh=  0.10000D-02 Tol=  0.10000D-05 Strict=F.
 There are     8 symmetry adapted cartesian basis functions of AG  symmetry.
 There are     1 symmetry adapted cartesian basis functions of B1G symmetry.
 There are     1 symmetry adapted cartesian basis functions of B2G symmetry.
 There are     1 symmetry adapted cartesian basis functions of B3G symmetry.
 There are     0 symmetry adapted cartesian basis functions of AU  symmetry.
 There are     4 symmetry adapted cartesian basis functions of B1U symmetry.
 There are     4 symmetry adapted cartesian basis functions of B2U symmetry.
 There are     4 symmetry adapted cartesian basis functions of B3U symmetry.
 There are     7 symmetry adapted basis functions of AG  symmetry.
 There are     1 symmetry adapted basis functions of B1G symmetry.
 There are     1 symmetry adapted basis functions of B2G symmetry.
 There are     1 symmetry adapted basis functions of B3G symmetry.
 There are     0 symmetry adapted basis functions of AU  symmetry.
 There are     4 symmetry adapted basis functions of B1U symmetry.
 There are     4 symmetry adapted basis functions of B2U symmetry.
 There are     4 symmetry adapted basis functions of B3U symmetry.
    22 basis functions,    36 primitive gaussians,    23 cartesian basis functions
     5 alpha electrons        4 beta electrons
       nuclear repulsion energy         0.0000000000 Hartrees.
 IExCor=  402 DFT=T Ex+Corr=B3LYP ExCW=0 ScaHFX=  0.200000
 ScaDFX=  0.800000  0.720000  1.000000  0.810000 ScalE2=  1.000000  1.000000
 IRadAn=      5 IRanWt=     -1 IRanGd=            0 ICorTp=0 IEmpDi=141
 NAtoms=    1 NActive=    1 NUniq=    1 SFac= 1.00D+00 NAtFMM=   60 NAOKFM=F Big=F
 Integral buffers will be    131072 words long.
 Raffenetti 2 integral format.
 Two-electron integral symmetry is turned on.
 R6Disp:  Grimme-D3(BJ) Dispersion energy=        0.0000000000 Hartrees.
 Nuclear repulsion after empirical dispersion term =        0.0000000000 Hartrees.
 Leave Link  301 at Sun May 19 14:52:23 2024, MaxMem=  7516192768 cpu:               1.1 elap:               0.0
 (Enter /home/tmj/soft/g16/l302.exe)
 NPDir=0 NMtPBC=     1 NCelOv=     1 NCel=       1 NClECP=     1 NCelD=      1
         NCelK=      1 NCelE2=     1 NClLst=     1 CellRange=     0.0.
 One-electron integrals computed using PRISM.
 One-electron integral symmetry used in STVInt
 NBasis=    22 RedAO= T EigKep=  7.64D-02  NBF=     7     1     1     1     0     4     4     4
 NBsUse=    22 1.00D-06 EigRej= -1.00D+00 NBFU=     7     1     1     1     0     4     4     4
 Precomputing XC quadrature grid using
 IXCGrd= 4 IRadAn=           5 IRanWt=          -1 IRanGd=           0 AccXCQ= 0.00D+00.
 Generated NRdTot=       0 NPtTot=           0 NUsed=           0 NTot=          32
 NSgBfM=    23    23    23    23    23 MxSgAt=     1 MxSgA2=     1.
 Leave Link  302 at Sun May 19 14:52:23 2024, MaxMem=  7516192768 cpu:               2.0 elap:               0.1
 (Enter /home/tmj/soft/g16/l303.exe)
 DipDrv:  MaxL=1.
 Leave Link  303 at Sun May 19 14:52:23 2024, MaxMem=  7516192768 cpu:               1.5 elap:               0.1
 (Enter /home/tmj/soft/g16/l401.exe)
 ExpMin= 1.08D-01 ExpMax= 1.14D+04 ExpMxC= 1.72D+03 IAcc=3 IRadAn=         5 AccDes= 0.00D+00
 Harris functional with IExCor=  402 and IRadAn=       5 diagonalized for initial guess.
 HarFok:  IExCor=  402 AccDes= 0.00D+00 IRadAn=         5 IDoV= 1 UseB2=F ITyADJ=14
 ICtDFT=  3500011 ScaDFX=  1.000000  1.000000  1.000000  1.000000
 FoFCou: FMM=F IPFlag=           0 FMFlag=      100000 FMFlg1=           0
         NFxFlg=           0 DoJE=T BraDBF=F KetDBF=T FulRan=T
         wScrn=  0.000000 ICntrl=       500 IOpCl=  0 I1Cent=   200000004 NGrid=           0
         NMat0=    1 NMatS0=      1 NMatT0=    0 NMatD0=    1 NMtDS0=    0 NMtDT0=    0
 Petite list used in FoFCou.
 Harris En= -99.7187004044936    
 JPrj=0 DoOrth=F DoCkMO=F.
 Initial guess orbital symmetries:
 Alpha Orbitals:
       Occupied  (A1G) (A1G) (T1U) (T1U) (T1U)
       Virtual   (A1G) (T1U) (T1U) (T1U) (T1U) (T1U) (T1U) (A1G)
                 (T2G) (T2G) (T2G) (EG) (EG) (T1U) (T1U) (T1U)
                 (A1G)
 Beta  Orbitals:
       Occupied  (A1G) (A1G) (T1U) (T1U)
       Virtual   (T1U) (A1G) (T1U) (T1U) (T1U) (T1U) (T1U) (T1U)
                 (A1G) (T2G) (T2G) (T2G) (EG) (EG) (T1U) (T1U)
                 (T1U) (A1G)
 Initial guess <Sx>= 0.0000 <Sy>= 0.0000 <Sz>= 0.5000 <S**2>= 0.7500 S= 0.5000
 Leave Link  401 at Sun May 19 14:52:23 2024, MaxMem=  7516192768 cpu:               3.1 elap:               0.1
 (Enter /home/tmj/soft/g16/l502.exe)
 Keep R1 and R2 ints in memory in symmetry-blocked form, NReq=24203796.
 FoFCou: FMM=F IPFlag=           0 FMFlag=           0 FMFlg1=           0
         NFxFlg=           0 DoJE=F BraDBF=F KetDBF=F FulRan=T
         wScrn=  0.000000 ICntrl=       600 IOpCl=  0 I1Cent=           0 NGrid=           0
         NMat0=    1 NMatS0=    253 NMatT0=    0 NMatD0=    1 NMtDS0=    0 NMtDT0=    0
 Petite list used in FoFCou.
 UHF open shell SCF:
 Using DIIS extrapolation, IDIIS=  1040.
 NGot=  7516192768 LenX=  7516177555 LenY=  7516176585
 Requested convergence on RMS density matrix=1.00D-08 within 128 cycles.
 Requested convergence on MAX density matrix=1.00D-06.
 Requested convergence on             energy=1.00D-06.
 No special actions if energy rises.
 Integral accuracy reduced to 1.0D-05 until final iterations.

 Cycle   1  Pass 0  IDiag  1:
 Density matrix breaks symmetry, PCut= 1.00D-04
 Density has only Abelian symmetry.
 E= -99.7561015221526    
 DIIS: error= 2.58D-02 at cycle   1 NSaved=   1.
 NSaved= 1 IEnMin= 1 EnMin= -99.7561015221526     IErMin= 1 ErrMin= 2.58D-02
 ErrMax= 2.58D-02  0.00D+00 EMaxC= 1.00D-01 BMatC= 2.51D-02 BMatP= 2.51D-02
 IDIUse=3 WtCom= 7.42D-01 WtEn= 2.58D-01
 Coeff-Com:  0.100D+01
 Coeff-En:   0.100D+01
 Coeff:      0.100D+01
 Gap=     0.617 Goal=   None    Shift=    0.000
 Gap=     0.170 Goal=   None    Shift=    0.000
 GapD=    0.170 DampG=1.000 DampE=0.500 DampFc=0.5000 IDamp=-1.
 Damping current iteration by 5.00D-01
 RMSDP=2.42D-03 MaxDP=2.61D-02              OVMax= 5.26D-02

 Cycle   2  Pass 0  IDiag  1:
 Density matrix breaks symmetry, PCut= 1.00D-04
 Density has only Abelian symmetry.
 E= -99.7582019694015     Delta-E=       -0.002100447249 Rises=F Damp=T
 DIIS: error= 1.37D-02 at cycle   2 NSaved=   2.
 NSaved= 2 IEnMin= 2 EnMin= -99.7582019694015     IErMin= 2 ErrMin= 1.37D-02
 ErrMax= 1.37D-02  0.00D+00 EMaxC= 1.00D-01 BMatC= 5.89D-03 BMatP= 2.51D-02
 IDIUse=3 WtCom= 8.63D-01 WtEn= 1.37D-01
 Coeff-Com: -0.251D+00 0.125D+01
 Coeff-En:   0.000D+00 0.100D+01
 Coeff:     -0.217D+00 0.122D+01
 Gap=     0.590 Goal=   None    Shift=    0.000
 Gap=     0.169 Goal=   None    Shift=    0.000
 RMSDP=9.61D-04 MaxDP=1.12D-02 DE=-2.10D-03 OVMax= 1.64D-02

 Cycle   3  Pass 0  IDiag  1:
 Density matrix breaks symmetry, PCut= 1.00D-04
 Density has only Abelian symmetry.
 E= -99.7604526313391     Delta-E=       -0.002250661938 Rises=F Damp=F
 DIIS: error= 4.49D-03 at cycle   3 NSaved=   3.
 NSaved= 3 IEnMin= 3 EnMin= -99.7604526313391     IErMin= 3 ErrMin= 4.49D-03
 ErrMax= 4.49D-03  0.00D+00 EMaxC= 1.00D-01 BMatC= 8.83D-04 BMatP= 5.89D-03
 IDIUse=3 WtCom= 9.55D-01 WtEn= 4.49D-02
 Coeff-Com: -0.229D+00 0.387D+00 0.842D+00
 Coeff-En:   0.000D+00 0.000D+00 0.100D+01
 Coeff:     -0.219D+00 0.370D+00 0.849D+00
 Gap=     0.595 Goal=   None    Shift=    0.000
 Gap=     0.171 Goal=   None    Shift=    0.000
 RMSDP=2.67D-04 MaxDP=3.54D-03 DE=-2.25D-03 OVMax= 5.07D-03

 Cycle   4  Pass 0  IDiag  1:
 Density matrix breaks symmetry, PCut= 1.00D-04
 Density has only Abelian symmetry.
 E= -99.7605798026360     Delta-E=       -0.000127171297 Rises=F Damp=F
 DIIS: error= 2.48D-04 at cycle   4 NSaved=   4.
 NSaved= 4 IEnMin= 4 EnMin= -99.7605798026360     IErMin= 4 ErrMin= 2.48D-04
 ErrMax= 2.48D-04  0.00D+00 EMaxC= 1.00D-01 BMatC= 2.69D-06 BMatP= 8.83D-04
 IDIUse=3 WtCom= 9.98D-01 WtEn= 2.48D-03
 Coeff-Com:  0.371D-01-0.715D-01-0.130D+00 0.116D+01
 Coeff-En:   0.000D+00 0.000D+00 0.000D+00 0.100D+01
 Coeff:      0.370D-01-0.714D-01-0.130D+00 0.116D+01
 Gap=     0.596 Goal=   None    Shift=    0.000
 Gap=     0.171 Goal=   None    Shift=    0.000
 RMSDP=3.64D-05 MaxDP=4.27D-04 DE=-1.27D-04 OVMax= 4.96D-04

 Cycle   5  Pass 0  IDiag  1:
 Density matrix breaks symmetry, PCut= 1.00D-04
 Density has only Abelian symmetry.
 E= -99.7605808871148     Delta-E=       -0.000001084479 Rises=F Damp=F
 DIIS: error= 4.99D-05 at cycle   5 NSaved=   5.
 NSaved= 5 IEnMin= 5 EnMin= -99.7605808871148     IErMin= 5 ErrMin= 4.99D-05
 ErrMax= 4.99D-05  0.00D+00 EMaxC= 1.00D-01 BMatC= 7.10D-08 BMatP= 2.69D-06
 IDIUse=1 WtCom= 1.00D+00 WtEn= 0.00D+00
 Coeff-Com: -0.500D-03 0.198D-02 0.707D-02-0.180D+00 0.117D+01
 Coeff:     -0.500D-03 0.198D-02 0.707D-02-0.180D+00 0.117D+01
 Gap=     0.596 Goal=   None    Shift=    0.000
 Gap=     0.171 Goal=   None    Shift=    0.000
 RMSDP=5.47D-06 MaxDP=6.44D-05 DE=-1.08D-06 OVMax= 9.43D-05

 Initial convergence to 1.0D-05 achieved.  Increase integral accuracy.
 Cycle   6  Pass 1  IDiag  1:
 Density matrix breaks symmetry, PCut= 1.00D-04
 Density has only Abelian symmetry.
 E= -99.7605801716834     Delta-E=        0.000000715431 Rises=F Damp=F
 DIIS: error= 3.82D-06 at cycle   1 NSaved=   1.
 NSaved= 1 IEnMin= 1 EnMin= -99.7605801716834     IErMin= 1 ErrMin= 3.82D-06
 ErrMax= 3.82D-06  0.00D+00 EMaxC= 1.00D-01 BMatC= 4.70D-10 BMatP= 4.70D-10
 IDIUse=1 WtCom= 1.00D+00 WtEn= 0.00D+00
 Coeff-Com:  0.100D+01
 Coeff:      0.100D+01
 Gap=     0.596 Goal=   None    Shift=    0.000
 Gap=     0.171 Goal=   None    Shift=    0.000
 RMSDP=5.47D-06 MaxDP=6.44D-05 DE= 7.15D-07 OVMax= 7.25D-06

 Cycle   7  Pass 1  IDiag  1:
 Density matrix breaks symmetry, PCut= 1.00D-04
 Density has only Abelian symmetry.
 E= -99.7605801717944     Delta-E=       -0.000000000111 Rises=F Damp=F
 DIIS: error= 2.04D-06 at cycle   2 NSaved=   2.
 NSaved= 2 IEnMin= 2 EnMin= -99.7605801717944     IErMin= 2 ErrMin= 2.04D-06
 ErrMax= 2.04D-06  0.00D+00 EMaxC= 1.00D-01 BMatC= 1.64D-10 BMatP= 4.70D-10
 IDIUse=1 WtCom= 1.00D+00 WtEn= 0.00D+00
 Coeff-Com:  0.297D+00 0.703D+00
 Coeff:      0.297D+00 0.703D+00
 Gap=     0.596 Goal=   None    Shift=    0.000
 Gap=     0.171 Goal=   None    Shift=    0.000
 RMSDP=1.58D-07 MaxDP=1.85D-06 DE=-1.11D-10 OVMax= 2.64D-06

 Cycle   8  Pass 1  IDiag  1:
 Density matrix breaks symmetry, PCut= 1.00D-04
 Density has only Abelian symmetry.
 E= -99.7605801718159     Delta-E=       -0.000000000021 Rises=F Damp=F
 DIIS: error= 9.61D-07 at cycle   3 NSaved=   3.
 NSaved= 3 IEnMin= 3 EnMin= -99.7605801718159     IErMin= 3 ErrMin= 9.61D-07
 ErrMax= 9.61D-07  0.00D+00 EMaxC= 1.00D-01 BMatC= 3.60D-11 BMatP= 1.64D-10
 IDIUse=1 WtCom= 1.00D+00 WtEn= 0.00D+00
 Coeff-Com: -0.123D+00 0.280D+00 0.843D+00
 Coeff:     -0.123D+00 0.280D+00 0.843D+00
 Gap=     0.596 Goal=   None    Shift=    0.000
 Gap=     0.171 Goal=   None    Shift=    0.000
 RMSDP=6.27D-08 MaxDP=7.91D-07 DE=-2.15D-11 OVMax= 1.21D-06

 Cycle   9  Pass 1  IDiag  1:
 Density matrix breaks symmetry, PCut= 1.00D-04
 Density has only Abelian symmetry.
 E= -99.7605801718218     Delta-E=       -0.000000000006 Rises=F Damp=F
 DIIS: error= 4.56D-08 at cycle   4 NSaved=   4.
 NSaved= 4 IEnMin= 4 EnMin= -99.7605801718218     IErMin= 4 ErrMin= 4.56D-08
 ErrMax= 4.56D-08  0.00D+00 EMaxC= 1.00D-01 BMatC= 9.93D-14 BMatP= 3.60D-11
 IDIUse=1 WtCom= 1.00D+00 WtEn= 0.00D+00
 Coeff-Com:  0.107D-01-0.464D-01-0.139D+00 0.118D+01
 Coeff:      0.107D-01-0.464D-01-0.139D+00 0.118D+01
 Gap=     0.596 Goal=   None    Shift=    0.000
 Gap=     0.171 Goal=   None    Shift=    0.000
 RMSDP=7.61D-09 MaxDP=7.86D-08 DE=-5.91D-12 OVMax= 9.92D-08

 Density matrix breaks symmetry, PCut= 1.00D-04
 Density has only Abelian symmetry.
 SCF Done:  E(UB3LYP) =  -99.7605801718     A.U. after    9 cycles
            NFock=  9  Conv=0.76D-08     -V/T= 2.0023
 <Sx>= 0.0000 <Sy>= 0.0000 <Sz>= 0.5000 <S**2>= 0.7513 S= 0.5007
 <L.S>=  0.00000000000    
 KE= 9.953376199998D+01 PE=-2.386678948075D+02 EE= 3.937355263571D+01
 Annihilation of the first spin contaminant:
 S**2 before annihilation     0.7513,   after     0.7500
 Leave Link  502 at Sun May 19 14:52:23 2024, MaxMem=  7516192768 cpu:               8.3 elap:               0.3
 (Enter /home/tmj/soft/g16/l801.exe)
 DoSCS=F DFT=T ScalE2(SS,OS)=  1.000000  1.000000
 Range of M.O.s used for correlation:     1    22
 NBasis=    22 NAE=     5 NBE=     4 NFC=     0 NFV=     0
 NROrb=     22 NOA=     5 NOB=     4 NVA=    17 NVB=    18
 Leave Link  801 at Sun May 19 14:52:23 2024, MaxMem=  7516192768 cpu:               0.5 elap:               0.0
 (Enter /home/tmj/soft/g16/l1101.exe)
 Using compressed storage, NAtomX=     1.
 Will process      2 centers per pass.
 R6Disp: Adding Grimme-D3(BJ) dispersion energy 1st derivatives to the gradient.
 Leave Link 1101 at Sun May 19 14:52:24 2024, MaxMem=  7516192768 cpu:               3.3 elap:               0.1
 (Enter /home/tmj/soft/g16/l1102.exe)
 Symmetrizing basis deriv contribution to polar:
 IMax=3 JMax=2 DiffMx= 0.00D+00
 Leave Link 1102 at Sun May 19 14:52:24 2024, MaxMem=  7516192768 cpu:               1.6 elap:               0.1
 (Enter /home/tmj/soft/g16/l1110.exe)
 Forming Gx(P) for the SCF density, NAtomX=     1.
 Integral derivatives from FoFJK, PRISM(SPDF).
 Do as many integral derivatives as possible in FoFJK.
 G2DrvN: MDV=    7516192535.
 Density matrix has lower than full symmetry, NOpUse=  8 NOpAll= 48.
 G2DrvN: will do     2 centers at a time, making    1 passes.
 Calling FoFCou, ICntrl=  3107 FMM=F I1Cent=   0 AccDes= 0.00D+00.
 FoFJK:  IHMeth= 1 ICntrl=    3107 DoSepK=F KAlg= 0 I1Cent=           0 FoldK=F
 IRaf=         0 NMat=       1 IRICut=       1 DoRegI=T DoRafI=F ISym2E= 1 IDoP0=0 IntGTp=1.
 FoFCou: FMM=F IPFlag=           0 FMFlag=      100000 FMFlg1=           0
         NFxFlg=           0 DoJE=F BraDBF=F KetDBF=F FulRan=T
         wScrn=  0.000000 ICntrl=      3107 IOpCl=  1 I1Cent=           0 NGrid=           0
         NMat0=    1 NMatS0=      1 NMatT0=    0 NMatD0=    1 NMtDS0=    0 NMtDT0=    0
 Petite list used in FoFCou.
 End of G2Drv F.D. properties file   721 does not exist.
 End of G2Drv F.D. properties file   722 does not exist.
 End of G2Drv F.D. properties file   788 does not exist.
 Leave Link 1110 at Sun May 19 14:52:24 2024, MaxMem=  7516192768 cpu:               4.1 elap:               0.2
 (Enter /home/tmj/soft/g16/l1002.exe)
 Minotr:  UHF open shell wavefunction.
          IDoAtm=1
          Direct CPHF calculation.
          Differentiating once with respect to electric field.
                with respect to dipole field.
          Differentiating once with respect to nuclear coordinates.
 Density matrix has lower than full symmetry, NOpUse=  8 NOpAll= 48.
          Using symmetry in CPHF.
          Requested convergence is 1.0D-08 RMS, and 1.0D-07 maximum.
          Secondary convergence is 1.0D-12 RMS, and 1.0D-12 maximum.
          NewPWx=T KeepS1=F KeepF1=F KeepIn=T MapXYZ=F SortEE=F KeepMc=T.
          299 words used for storage of precomputed grid.
 Keep R1 and R2 ints in memory in symmetry-blocked form, NReq=24106854.
 FoFCou: FMM=F IPFlag=           0 FMFlag=           0 FMFlg1=           0
         NFxFlg=           0 DoJE=F BraDBF=F KetDBF=F FulRan=T
         wScrn=  0.000000 ICntrl=       600 IOpCl=  0 I1Cent=           0 NGrid=           0
         NMat0=    1 NMatS0=    253 NMatT0=    0 NMatD0=    1 NMtDS0=    0 NMtDT0=    0
 Petite list used in FoFCou.
          MDV=    7516192768 using IRadAn=       1.
          Solving linear equations simultaneously, MaxMat=       0.
 FoF2E skips out because all densities are zero.
 CalDSu exits because no D1Ps are significant.
          There are     6 degrees of freedom in the 1st order CPHF.  IDoFFX=6 NUNeed=     3.
      3 vectors produced by pass  0 Test12= 2.62D-15 1.67D-08 XBig12= 1.04D+00 7.18D-01.
 AX will form     3 AO Fock derivatives at one time.
      3 vectors produced by pass  1 Test12= 2.62D-15 1.67D-08 XBig12= 3.06D-02 1.08D-01.
      3 vectors produced by pass  2 Test12= 2.62D-15 1.67D-08 XBig12= 6.58D-04 1.47D-02.
      3 vectors produced by pass  3 Test12= 2.62D-15 1.67D-08 XBig12= 1.64D-06 6.21D-04.
      3 vectors produced by pass  4 Test12= 2.62D-15 1.67D-08 XBig12= 1.23D-09 1.97D-05.
      3 vectors produced by pass  5 Test12= 2.62D-15 1.67D-08 XBig12= 6.09D-13 3.45D-07.
 InvSVY:  IOpt=1 It=  1 EMax= 2.22D-16
 Solved reduced A of dimension    18 with     3 vectors.
 FullF1:  Do perturbations      1 to       3.
 Isotropic polarizability for W=    0.000000        1.71 Bohr**3.
 End of Minotr F.D. properties file   721 does not exist.
 End of Minotr F.D. properties file   722 does not exist.
 End of Minotr F.D. properties file   788 does not exist.
 Leave Link 1002 at Sun May 19 14:52:24 2024, MaxMem=  7516192768 cpu:               3.4 elap:               0.1
 (Enter /home/tmj/soft/g16/l601.exe)
 Copying SCF densities to generalized density rwf, IOpCl= 1 IROHF=0.
 SCF density gives NOpUse=  8 NOpAll= 48.
 Marking SCF density as not fully symmetric.

 **********************************************************************

            Population analysis using the SCF Density.

 **********************************************************************

 Orbital symmetries:
 Alpha Orbitals:
       Occupied  (A1G) (?A) (?B) (?B) (?B)
       Virtual   (A1G) (?B) (?B) (?B) (?B) (?B) (?B) (?A) (?A)
                 (T2G) (T2G) (T2G) (?A) (T1U) (T1U) (T1U) (A1G)
 Beta  Orbitals:
       Occupied  (A1G) (A1G) (?A) (?A)
       Virtual   (?A) (A1G) (?A) (?A) (?A) (?A) (?A) (?A) (A1G)
                 (T2G) (EG) (T2G) (T2G) (EG) (T1U) (T1U) (T1U)
                 (A1G)
 Unable to determine electronic state:  an orbital has unidentified symmetry.
 Alpha  occ. eigenvalues --  -24.78986  -1.24002  -0.57138  -0.48378  -0.48378
 Alpha virt. eigenvalues --    0.11191   0.18028   0.18997   0.18997   1.17118
 Alpha virt. eigenvalues --    1.21593   1.21593   1.48250   3.63006   3.65211
 Alpha virt. eigenvalues --    3.65211   3.72173   3.72173   6.08025   6.15781
 Alpha virt. eigenvalues --    6.15781  66.55135
  Beta  occ. eigenvalues --  -24.75806  -1.14861  -0.45162  -0.45162
  Beta virt. eigenvalues --   -0.28110   0.11949   0.19280   0.19280   0.20435
  Beta virt. eigenvalues --    1.22975   1.22975   1.25516   1.52215   3.73876
  Beta virt. eigenvalues --    3.73876   3.75072   3.75072   3.77106   6.18451
  Beta virt. eigenvalues --    6.18451   6.21839  66.58302
          Condensed to atoms (all electrons):
               1
     1  F    9.000000
          Atomic-Atomic Spin Densities.
               1
     1  F    1.000000
 Mulliken charges and spin densities:
               1          2
     1  F    0.000000   1.000000
 Sum of Mulliken charges =   0.00000   1.00000
 Mulliken charges and spin densities with hydrogens summed into heavy atoms:
               1          2
     1  F    0.000000   1.000000
 APT charges:
               1
     1  F    0.000000
 Sum of APT charges =   0.00000
 APT charges with hydrogens summed into heavy atoms:
               1
     1  F    0.000000
 Electronic spatial extent (au):  <R**2>=             10.6155
 Charge=              0.0000 electrons
 Dipole moment (field-independent basis, Debye):
    X=              0.0000    Y=              0.0000    Z=              0.0000  Tot=              0.0000
 Quadrupole moment (field-independent basis, Debye-Ang):
   XX=             -5.0806   YY=             -4.1171   ZZ=             -5.0806
   XY=             -0.0000   XZ=             -0.0000   YZ=              0.0000
 Traceless Quadrupole moment (field-independent basis, Debye-Ang):
   XX=             -0.3212   YY=              0.6423   ZZ=             -0.3212
   XY=             -0.0000   XZ=             -0.0000   YZ=              0.0000
 Octapole moment (field-independent basis, Debye-Ang**2):
  XXX=              0.0000  YYY=              0.0000  ZZZ=              0.0000  XYY=              0.0000
  XXY=              0.0000  XXZ=              0.0000  XZZ=              0.0000  YZZ=              0.0000
  YYZ=              0.0000  XYZ=              0.0000
 Hexadecapole moment (field-independent basis, Debye-Ang**3):
 XXXX=             -3.4111 YYYY=             -2.2814 ZZZZ=             -3.4111 XXXY=             -0.0000
 XXXZ=             -0.0000 YYYX=             -0.0000 YYYZ=              0.0000 ZZZX=             -0.0000
 ZZZY=              0.0000 XXYY=             -0.9488 XXZZ=             -1.1370 YYZZ=             -0.9488
 XXYZ=              0.0000 YYXZ=             -0.0000 ZZXY=             -0.0000
 N-N= 0.000000000000D+00 E-N=-2.386678951755D+02  KE= 9.953376199998D+01
 Symmetry AG   KE= 8.265152699701D+01
 Symmetry B1G  KE= 8.427925513550D-36
 Symmetry B2G  KE=-8.762195689566D-53
 Symmetry B3G  KE= 8.427925513550D-36
 Symmetry AU   KE= 0.000000000000D+00
 Symmetry B1U  KE= 6.681364066014D+00
 Symmetry B2U  KE= 3.519506870947D+00
 Symmetry B3U  KE= 6.681364066014D+00
 Symmetry AG   SP=-2.738221519959D-15
 Symmetry B1G  SP= 9.595629385025D-37
 Symmetry B2G  SP=-6.002927629019D-53
 Symmetry B3G  SP= 9.595629385025D-37
 Symmetry AU   SP= 0.000000000000D+00
 Symmetry B1U  SP=-1.045933404240D-15
 Symmetry B2U  SP= 1.000000000000D+00
 Symmetry B3U  SP=-1.064598664217D-16
  Exact polarizability:       1.762       0.000       1.602       0.000       0.000       1.762
 Approx polarizability:       1.657      -0.000       1.656      -0.000      -0.000       1.657
                          Isotropic Fermi Contact Couplings
        Atom                 a.u.       MegaHertz       Gauss      10(-4) cm-1
     1  F(19)              0.02605     109.58846      39.10389      36.55477
 --------------------------------------------------------
       Center         ----  Spin Dipole Couplings  ----
                      3XX-RR        3YY-RR        3ZZ-RR
 --------------------------------------------------------
     1   Atom       -3.134322      6.268643     -3.134322
 --------------------------------------------------------
                        XY            XZ            YZ
 --------------------------------------------------------
     1   Atom        0.000000      0.000000      0.000000
 --------------------------------------------------------


 ---------------------------------------------------------------------------------
              Anisotropic Spin Dipole Couplings in Principal Axis System
 ---------------------------------------------------------------------------------

       Atom             a.u.   MegaHertz   Gauss  10(-4) cm-1        Axes

              Baa    -3.1343 -1574.137  -561.691  -525.075  0.0000  0.0000  1.0000
     1 F(19)  Bbb    -3.1343 -1574.137  -561.691  -525.075  1.0000  0.0000  0.0000
              Bcc     6.2686  3148.273  1123.382  1050.151 -0.0000  1.0000  0.0000
 

 ---------------------------------------------------------------------------------

 No NMR shielding tensors so no spin-rotation constants.
 Leave Link  601 at Sun May 19 14:52:24 2024, MaxMem=  7516192768 cpu:               5.0 elap:               0.2
 (Enter /home/tmj/soft/g16/l701.exe)
 ... and contract with generalized density number  0.
 Compute integral second derivatives.
 Density matrix has only Abelian symmetry.
 R6Disp: Adding Grimme-D3(BJ) dispersion energy 2nd derivatives to the Hessian.
 Leave Link  701 at Sun May 19 14:52:24 2024, MaxMem=  7516192768 cpu:               3.5 elap:               0.1
 (Enter /home/tmj/soft/g16/l702.exe)
 L702 exits ... SP integral derivatives will be done elsewhere.
 Leave Link  702 at Sun May 19 14:52:25 2024, MaxMem=  7516192768 cpu:               0.4 elap:               0.0
 (Enter /home/tmj/soft/g16/l703.exe)
 Integral derivatives from FoFJK, PRISM(SPDF).
 Compute integral second derivatives, UseDBF=F ICtDFT=           0.
 Density matrix has only Abelian symmetry.
 Calling FoFJK, ICntrl=    100127 FMM=F ISym2X=1 I1Cent= 0 IOpClX= 1 NMat=1 NMatS=1 NMatT=0.
 FoFJK:  IHMeth= 1 ICntrl=  100127 DoSepK=F KAlg= 0 I1Cent=           0 FoldK=F
 IRaf=         0 NMat=       1 IRICut=       1 DoRegI=T DoRafI=F ISym2E= 1 IDoP0=0 IntGTp=1.
 FoFCou: FMM=F IPFlag=           0 FMFlag=      100000 FMFlg1=         800
         NFxFlg=           0 DoJE=F BraDBF=F KetDBF=F FulRan=T
         wScrn=  0.000000 ICntrl=    100127 IOpCl=  1 I1Cent=           0 NGrid=           0
         NMat0=    1 NMatS0=      1 NMatT0=    0 NMatD0=    1 NMtDS0=    0 NMtDT0=    0
 Petite list used in FoFCou.
 Leave Link  703 at Sun May 19 14:52:25 2024, MaxMem=  7516192768 cpu:               7.2 elap:               0.3
 (Enter /home/tmj/soft/g16/l716.exe)
 Dipole        = 0.00000000D+00 0.00000000D+00 0.00000000D+00
 Polarizability= 1.76155406D+00 2.73078348D-21 1.60238320D+00
                 0.00000000D+00 0.00000000D+00 1.76155406D+00
 Full mass-weighted force constant matrix:
 Low frequencies ---    0.0001    0.0001    0.0001
 Diagonal vibrational polarizability:
        0.0000000       0.0000000       0.0000000
 Harmonic frequencies (cm**-1), IR intensities (KM/Mole), Raman scattering
 activities (A**4/AMU), depolarization ratios for plane and unpolarized
 incident light, reduced masses (AMU), force constants (mDyne/A),
 and normal coordinates:

 -------------------
 - Thermochemistry -
 -------------------
 Temperature   298.150 Kelvin.  Pressure   1.00000 Atm.
 Atom     1 has atomic number  9 and mass  18.99840
 Molecular mass:    18.99840 amu.
 Zero-point vibrational energy          0.0 (Joules/Mol)
                                    0.00000 (Kcal/Mol)
 Vibrational temperatures: 
          (Kelvin)
 
 Zero-point correction=                           0.000000 (Hartree/Particle)
 Thermal correction to Energy=                    0.001416
 Thermal correction to Enthalpy=                  0.002360
 Thermal correction to Gibbs Free Energy=        -0.014813
 Sum of electronic and zero-point Energies=            -99.760580
 Sum of electronic and thermal Energies=               -99.759164
 Sum of electronic and thermal Enthalpies=             -99.758220
 Sum of electronic and thermal Free Energies=          -99.775393
 
                     E (Thermal)             CV                S
                      KCal/Mol        Cal/Mol-Kelvin    Cal/Mol-Kelvin
 Total                    0.889              2.981             36.145
 Electronic               0.000              0.000              1.377
 Translational            0.889              2.981             34.767
 Rotational               0.000              0.000              0.000
 Vibrational              0.000              0.000              0.000
                       Q            Log10(Q)             Ln(Q)
 Total Bot       0.650968D+07          6.813560         15.688801
 Total V=0       0.650968D+07          6.813560         15.688801
 Vib (Bot)       0.100000D+01          0.000000          0.000000
 Vib (V=0)       0.100000D+01          0.000000          0.000000
 Electronic      0.200000D+01          0.301030          0.693147
 Translational   0.325484D+07          6.512530         14.995653
 Rotational      0.100000D+01          0.000000          0.000000
 ***** Axes restored to original set *****
 -------------------------------------------------------------------
 Center     Atomic                   Forces (Hartrees/Bohr)
 Number     Number              X              Y              Z
 -------------------------------------------------------------------
      1        9          -0.000000000   -0.000000000   -0.000000000
 -------------------------------------------------------------------
 Cartesian Forces:  Max     0.000000000 RMS     0.000000000
 Z-matrix is all fixed cartesians, so copy forces.
 Force constants in Cartesian coordinates: 
                1             2             3 
      1  0.000000D+00
      2  0.000000D+00  0.000000D+00
      3  0.000000D+00  0.000000D+00  0.000000D+00
 Leave Link  716 at Sun May 19 14:52:25 2024, MaxMem=  7516192768 cpu:               1.0 elap:               0.0
 (Enter /home/tmj/soft/g16/l103.exe)

 GradGradGradGradGradGradGradGradGradGradGradGradGradGradGradGradGradGrad
 Berny optimization.
 Search for a local minimum.
 Step number   1 out of a maximum of    2
 All quantities printed in internal units (Hartrees-Bohrs-Radians)
 Second derivative matrix not updated -- analytic derivatives used.
 The second derivative matrix:
                          X1        Y1        Z1
           X1           0.00000
           Y1          -0.00000   0.00000
           Z1           0.00000   0.00000   0.00000
 ITU=  0
     Eigenvalues --- 
 Angle between quadratic step and forces=  90.00 degrees.
 Linear search not attempted -- first point.
 B after Tr=     0.000000    0.000000    0.000000
         Rot=    1.000000    0.000000    0.000000    0.000000 Ang=   0.00 deg.
 Variable       Old X    -DE/DX   Delta X   Delta X   Delta X     New X
                                 (Linear)    (Quad)   (Total)
    X1        0.00000  -0.00000   0.00000   0.00000   0.00000   0.00000
    Y1        0.00000  -0.00000   0.00000   0.00000   0.00000   0.00000
    Z1        0.00000  -0.00000   0.00000   0.00000   0.00000   0.00000
         Item               Value     Threshold  Converged?
 Maximum Force            0.000000     0.000450     YES
 RMS     Force            0.000000     0.000300     YES
 Maximum Displacement     0.000000     0.001800     YES
 RMS     Displacement     0.000000     0.001200     YES
 Predicted change in Energy=-0.000000D+00
 Optimization completed.
    -- Stationary point found.
 GradGradGradGradGradGradGradGradGradGradGradGradGradGradGradGradGradGrad

 Leave Link  103 at Sun May 19 14:52:25 2024, MaxMem=  7516192768 cpu:               0.6 elap:               0.0
 (Enter /home/tmj/soft/g16/l9999.exe)
 Dipole is zero, so no output in dipole orientation.

 ----------------------------------------------------------------------

 Electric dipole moment (input orientation):
 (Debye = 10**-18 statcoulomb cm , SI units = C m)
                  (au)            (Debye)         (10**-30 SI)
   Tot        0.000000D+00      0.000000D+00      0.000000D+00
   x          0.000000D+00      0.000000D+00      0.000000D+00
   y          0.000000D+00      0.000000D+00      0.000000D+00
   z          0.000000D+00      0.000000D+00      0.000000D+00

 Dipole polarizability, Alpha (input orientation).
 (esu units = cm**3 , SI units = C**2 m**2 J**-1)
 Alpha(0;0):
               (au)            (10**-24 esu)      (10**-40 SI)
   iso        0.170850D+01      0.253173D+00      0.281693D+00
   aniso      0.159171D+00      0.235867D-01      0.262437D-01
   xx         0.176155D+01      0.261035D+00      0.290441D+00
   yx         0.000000D+00      0.000000D+00      0.000000D+00
   yy         0.160238D+01      0.237449D+00      0.264197D+00
   zx         0.000000D+00      0.000000D+00      0.000000D+00
   zy         0.000000D+00      0.000000D+00      0.000000D+00
   zz         0.176155D+01      0.261035D+00      0.290441D+00

 ----------------------------------------------------------------------
 Unable to Open any file for archive entry.
 1\1\GINC-TMJ\Freq\UB3LYP\6-311+G(d,p)\F1(2)\TMJ\19-May-2024\0\\#p freq
  b3lyp/6-311+g** em=gd3bj\\Title: F-b3lyp-d3-6-311+g**\\0,2\F,0.,0.,0.
 \\Version=ES64L-G16RevC.01\HF=-99.7605802\S2=0.751322\S2-1=0.\S2A=0.75
 0001\RMSD=7.615e-09\RMSF=0.000e+00\Thermal=0.0014163\ETot=-99.7591639\
 HTot=-99.7582197\GTot=-99.7753933\Dipole=0.,0.,0.\DipoleDeriv=0.,0.,0.
 ,0.,0.,0.,0.,0.,0.\Polar=1.7615541,0.,1.6023832,0.,0.,1.7615541\Quadru
 pole=-0.2387831,0.4775661,-0.2387831,0.,0.,0.\PG=OH [O(F1)]\NImag=0\\0
 .,0.,0.,0.,0.,0.\\0.,0.,0.\\\@
 The archive entry for this job was punched.


     ON THE SURVIVAL OF THE FITTEST -
 "STRONG REPRESENTATIVES FROM EACH PAST ERA THRIVE TODAY,
 SUCH AS PROGRAMMING IN THE THIRTY YEAR OLD LANGUAGE KNOWN
 AS FORTRAN, AND EVEN IN THE ANCIENT SCRIPT KNOWN AS DIRECT
 MACHINE CODE. SOME PEOPLE MIGHT LOOK ON SUCH RELICS AS LIVING
 FOSSILS; OTHERS WOULD POINT OUT THAT EVEN A VERY OLD SPECIES
 MIGHT STILL BE FILLING A PARTICULAR ECOLOGICAL NICHE."
     -- ALAN KAY, SCI.AM. SEPTEMBER 1984
 Job cpu time:       0 days  0 hours  0 minutes 50.0 seconds.
 Elapsed time:       0 days  0 hours  0 minutes  2.0 seconds.
 File lengths (MBytes):  RWF=      6 Int=      0 D2E=      0 Chk=      1 Scr=      1
 Normal termination of Gaussian 16 at Sun May 19 14:52:25 2024.
