 Entering Gaussian System, Link 0=g16
 Input=N-b3lyp-d3-6-311+G**.gjf
 Output=N-b3lyp-d3-6-311+G**.log
 Initial command:
 /home/tmj/soft/g16/l1.exe "/home/tmj/soft/g16temp/Gau-603434.inp" -scrdir="/home/tmj/soft/g16temp/"
 Entering Link 1 = /home/tmj/soft/g16/l1.exe PID=    603436.
  
 Copyright (c) 1988-2019, Gaussian, Inc.  All Rights Reserved.
  
 This is part of the Gaussian(R) 16 program.  It is based on
 the Gaussian(R) 09 system (copyright 2009, Gaussian, Inc.),
 the Gaussian(R) 03 system (copyright 2003, Gaussian, Inc.),
 the Gaussian(R) 98 system (copyright 1998, Gaussian, Inc.),
 the Gaussian(R) 94 system (copyright 1995, Gaussian, Inc.),
 the Gaussian 92(TM) system (copyright 1992, Gaussian, Inc.),
 the Gaussian 90(TM) system (copyright 1990, Gaussian, Inc.),
 the Gaussian 88(TM) system (copyright 1988, Gaussian, Inc.),
 the Gaussian 86(TM) system (copyright 1986, Carnegie Mellon
 University), and the Gaussian 82(TM) system (copyright 1983,
 Carnegie Mellon University). Gaussian is a federally registered
 trademark of Gaussian, Inc.
  
 This software contains proprietary and confidential information,
 including trade secrets, belonging to Gaussian, Inc.
  
 This software is provided under written license and may be
 used, copied, transmitted, or stored only in accord with that
 written license.
  
 The following legend is applicable only to US Government
 contracts under FAR:
  
                    RESTRICTED RIGHTS LEGEND
  
 Use, reproduction and disclosure by the US Government is
 subject to restrictions as set forth in subparagraphs (a)
 and (c) of the Commercial Computer Software - Restricted
 Rights clause in FAR 52.227-19.
  
 Gaussian, Inc.
 340 Quinnipiac St., Bldg. 40, Wallingford CT 06492
  
  
 ---------------------------------------------------------------
 Warning -- This program may not be used in any manner that
 competes with the business of Gaussian, Inc. or will provide
 assistance to any competitor of Gaussian, Inc.  The licensee
 of this program is prohibited from giving any competitor of
 Gaussian, Inc. access to this program.  By using this program,
 the user acknowledges that Gaussian, Inc. is engaged in the
 business of creating and licensing software in the field of
 computational chemistry and represents and warrants to the
 licensee that it is not a competitor of Gaussian, Inc. and that
 it will not use this program in any manner prohibited above.
 ---------------------------------------------------------------
  

 Cite this work as:
 Gaussian 16, Revision C.01,
 M. J. Frisch, G. W. Trucks, H. B. Schlegel, G. E. Scuseria, 
 M. A. Robb, J. R. Cheeseman, G. Scalmani, V. Barone, 
 G. A. Petersson, H. Nakatsuji, X. Li, M. Caricato, A. V. Marenich, 
 J. Bloino, B. G. Janesko, R. Gomperts, B. Mennucci, H. P. Hratchian, 
 J. V. Ortiz, A. F. Izmaylov, J. L. Sonnenberg, D. Williams-Young, 
 F. Ding, F. Lipparini, F. Egidi, J. Goings, B. Peng, A. Petrone, 
 T. Henderson, D. Ranasinghe, V. G. Zakrzewski, J. Gao, N. Rega, 
 G. Zheng, W. Liang, M. Hada, M. Ehara, K. Toyota, R. Fukuda, 
 J. Hasegawa, M. Ishida, T. Nakajima, Y. Honda, O. Kitao, H. Nakai, 
 T. Vreven, K. Throssell, J. A. Montgomery, Jr., J. E. Peralta, 
 F. Ogliaro, M. J. Bearpark, J. J. Heyd, E. N. Brothers, K. N. Kudin, 
 V. N. Staroverov, T. A. Keith, R. Kobayashi, J. Normand, 
 K. Raghavachari, A. P. Rendell, J. C. Burant, S. S. Iyengar, 
 J. Tomasi, M. Cossi, J. M. Millam, M. Klene, C. Adamo, R. Cammi, 
 J. W. Ochterski, R. L. Martin, K. Morokuma, O. Farkas, 
 J. B. Foresman, and D. J. Fox, Gaussian, Inc., Wallingford CT, 2019.
 
 ******************************************
 Gaussian 16:  ES64L-G16RevC.01  3-Jul-2019
                19-May-2024 
 ******************************************
 %nproc=28
 Will use up to   28 processors via shared memory.
 %mem=56GB
 --------------------------------
 #p freq b3lyp/6-311+g** em=gd3bj
 --------------------------------
 1/10=4,30=1,38=1/1,3;
 2/12=2,17=6,18=5,40=1/2;
 3/5=4,6=6,7=111,11=2,25=1,30=1,71=2,74=-5,124=41,140=1/1,2,3;
 4//1;
 5/5=2,38=5,98=1/2;
 8/6=4,10=90,11=11/1;
 11/6=1,8=1,9=11,15=111,16=1/1,2,10;
 10/6=1/2;
 6/7=2,8=2,9=2,10=2,28=1/1;
 7/8=1,10=1,25=1/1,2,3,16;
 1/10=4,30=1/3;
 99//99;
 Leave Link    1 at Sun May 19 14:52:38 2024, MaxMem=  7516192768 cpu:               0.3 elap:               0.0
 (Enter /home/tmj/soft/g16/l101.exe)
 ---------------------------
 Title: N-b3lyp-d3-6-311+g**
 ---------------------------
 Symbolic Z-matrix:
 Charge =  0 Multiplicity = 2
 N                     0.        0.        0. 
 
 ITRead=  0
 MicOpt= -1
 NAtoms=      1 NQM=        1 NQMF=       0 NMMI=      0 NMMIF=      0
                NMic=       0 NMicF=      0.
                    Isotopes and Nuclear Properties:
 (Nuclear quadrupole moments (NQMom) in fm**2, nuclear magnetic moments (NMagM)
  in nuclear magnetons)

  Atom         1
 IAtWgt=          14
 AtmWgt=  14.0030740
 NucSpn=           2
 AtZEff=  -0.0000000
 NQMom=    2.0440000
 NMagM=    0.4037610
 AtZNuc=   7.0000000
 Leave Link  101 at Sun May 19 14:52:38 2024, MaxMem=  7516192768 cpu:               1.5 elap:               0.1
 (Enter /home/tmj/soft/g16/l103.exe)

 GradGradGradGradGradGradGradGradGradGradGradGradGradGradGradGradGradGrad
 Berny optimization.
 Initialization pass.
 Trust Radius=3.00D-01 FncErr=1.00D-07 GrdErr=1.00D-07 EigMax=2.50D+02 EigMin=1.00D-04
 Number of steps in this run=      2 maximum allowed number of steps=      2.
 GradGradGradGradGradGradGradGradGradGradGradGradGradGradGradGradGradGrad

 Leave Link  103 at Sun May 19 14:52:38 2024, MaxMem=  7516192768 cpu:               0.4 elap:               0.0
 (Enter /home/tmj/soft/g16/l202.exe)
                          Input orientation:                          
 ---------------------------------------------------------------------
 Center     Atomic      Atomic             Coordinates (Angstroms)
 Number     Number       Type             X           Y           Z
 ---------------------------------------------------------------------
      1          7           0        0.000000    0.000000    0.000000
 ---------------------------------------------------------------------
 Stoichiometry    N(2)
 Framework group  OH[O(N)]
 Deg. of freedom     0
 Full point group                 OH      NOp  48
 Largest Abelian subgroup         D2H     NOp   8
 Largest concise Abelian subgroup C1      NOp   1
                         Standard orientation:                         
 ---------------------------------------------------------------------
 Center     Atomic      Atomic             Coordinates (Angstroms)
 Number     Number       Type             X           Y           Z
 ---------------------------------------------------------------------
      1          7           0        0.000000    0.000000    0.000000
 ---------------------------------------------------------------------
 Leave Link  202 at Sun May 19 14:52:38 2024, MaxMem=  7516192768 cpu:               0.6 elap:               0.0
 (Enter /home/tmj/soft/g16/l301.exe)
 Standard basis: 6-311+G(d,p) (5D, 7F)
 Ernie: Thresh=  0.10000D-02 Tol=  0.10000D-05 Strict=F.
 There are     8 symmetry adapted cartesian basis functions of AG  symmetry.
 There are     1 symmetry adapted cartesian basis functions of B1G symmetry.
 There are     1 symmetry adapted cartesian basis functions of B2G symmetry.
 There are     1 symmetry adapted cartesian basis functions of B3G symmetry.
 There are     0 symmetry adapted cartesian basis functions of AU  symmetry.
 There are     4 symmetry adapted cartesian basis functions of B1U symmetry.
 There are     4 symmetry adapted cartesian basis functions of B2U symmetry.
 There are     4 symmetry adapted cartesian basis functions of B3U symmetry.
 There are     7 symmetry adapted basis functions of AG  symmetry.
 There are     1 symmetry adapted basis functions of B1G symmetry.
 There are     1 symmetry adapted basis functions of B2G symmetry.
 There are     1 symmetry adapted basis functions of B3G symmetry.
 There are     0 symmetry adapted basis functions of AU  symmetry.
 There are     4 symmetry adapted basis functions of B1U symmetry.
 There are     4 symmetry adapted basis functions of B2U symmetry.
 There are     4 symmetry adapted basis functions of B3U symmetry.
    22 basis functions,    36 primitive gaussians,    23 cartesian basis functions
     4 alpha electrons        3 beta electrons
       nuclear repulsion energy         0.0000000000 Hartrees.
 IExCor=  402 DFT=T Ex+Corr=B3LYP ExCW=0 ScaHFX=  0.200000
 ScaDFX=  0.800000  0.720000  1.000000  0.810000 ScalE2=  1.000000  1.000000
 IRadAn=      5 IRanWt=     -1 IRanGd=            0 ICorTp=0 IEmpDi=141
 NAtoms=    1 NActive=    1 NUniq=    1 SFac= 1.00D+00 NAtFMM=   60 NAOKFM=F Big=F
 Integral buffers will be    131072 words long.
 Raffenetti 2 integral format.
 Two-electron integral symmetry is turned on.
 R6Disp:  Grimme-D3(BJ) Dispersion energy=        0.0000000000 Hartrees.
 Nuclear repulsion after empirical dispersion term =        0.0000000000 Hartrees.
 Leave Link  301 at Sun May 19 14:52:38 2024, MaxMem=  7516192768 cpu:               1.2 elap:               0.0
 (Enter /home/tmj/soft/g16/l302.exe)
 NPDir=0 NMtPBC=     1 NCelOv=     1 NCel=       1 NClECP=     1 NCelD=      1
         NCelK=      1 NCelE2=     1 NClLst=     1 CellRange=     0.0.
 One-electron integrals computed using PRISM.
 One-electron integral symmetry used in STVInt
 NBasis=    22 RedAO= T EigKep=  7.52D-02  NBF=     7     1     1     1     0     4     4     4
 NBsUse=    22 1.00D-06 EigRej= -1.00D+00 NBFU=     7     1     1     1     0     4     4     4
 Precomputing XC quadrature grid using
 IXCGrd= 4 IRadAn=           5 IRanWt=          -1 IRanGd=           0 AccXCQ= 0.00D+00.
 Generated NRdTot=       0 NPtTot=           0 NUsed=           0 NTot=          32
 NSgBfM=    23    23    23    23    23 MxSgAt=     1 MxSgA2=     1.
 Leave Link  302 at Sun May 19 14:52:38 2024, MaxMem=  7516192768 cpu:               3.5 elap:               0.1
 (Enter /home/tmj/soft/g16/l303.exe)
 DipDrv:  MaxL=1.
 Leave Link  303 at Sun May 19 14:52:38 2024, MaxMem=  7516192768 cpu:               0.7 elap:               0.0
 (Enter /home/tmj/soft/g16/l401.exe)
 ExpMin= 6.39D-02 ExpMax= 6.29D+03 ExpMxC= 9.49D+02 IAcc=3 IRadAn=         5 AccDes= 0.00D+00
 Harris functional with IExCor=  402 and IRadAn=       5 diagonalized for initial guess.
 HarFok:  IExCor=  402 AccDes= 0.00D+00 IRadAn=         5 IDoV= 1 UseB2=F ITyADJ=14
 ICtDFT=  3500011 ScaDFX=  1.000000  1.000000  1.000000  1.000000
 FoFCou: FMM=F IPFlag=           0 FMFlag=      100000 FMFlg1=           0
         NFxFlg=           0 DoJE=T BraDBF=F KetDBF=T FulRan=T
         wScrn=  0.000000 ICntrl=       500 IOpCl=  0 I1Cent=   200000004 NGrid=           0
         NMat0=    1 NMatS0=      1 NMatT0=    0 NMatD0=    1 NMtDS0=    0 NMtDT0=    0
 Petite list used in FoFCou.
 Harris En= -54.4737236055347    
 JPrj=0 DoOrth=F DoCkMO=F.
 Initial guess orbital symmetries:
 Alpha Orbitals:
       Occupied  (A1G) (A1G) (T1U) (T1U)
       Virtual   (T1U) (A1G) (T1U) (T1U) (T1U) (T1U) (T1U) (T1U)
                 (A1G) (T2G) (T2G) (T2G) (EG) (EG) (T1U) (T1U)
                 (T1U) (A1G)
 Beta  Orbitals:
       Occupied  (A1G) (A1G) (T1U)
       Virtual   (T1U) (T1U) (A1G) (T1U) (T1U) (T1U) (T1U) (T1U)
                 (T1U) (A1G) (T2G) (T2G) (T2G) (EG) (EG) (T1U)
                 (T1U) (T1U) (A1G)
 Initial guess <Sx>= 0.0000 <Sy>= 0.0000 <Sz>= 0.5000 <S**2>= 0.7500 S= 0.5000
 Leave Link  401 at Sun May 19 14:52:38 2024, MaxMem=  7516192768 cpu:               3.7 elap:               0.1
 (Enter /home/tmj/soft/g16/l502.exe)
 Keep R1 and R2 ints in memory in symmetry-blocked form, NReq=24203796.
 FoFCou: FMM=F IPFlag=           0 FMFlag=           0 FMFlg1=           0
         NFxFlg=           0 DoJE=F BraDBF=F KetDBF=F FulRan=T
         wScrn=  0.000000 ICntrl=       600 IOpCl=  0 I1Cent=           0 NGrid=           0
         NMat0=    1 NMatS0=    253 NMatT0=    0 NMatD0=    1 NMtDS0=    0 NMtDT0=    0
 Petite list used in FoFCou.
 UHF open shell SCF:
 Using DIIS extrapolation, IDIIS=  1040.
 NGot=  7516192768 LenX=  7516177555 LenY=  7516176585
 Requested convergence on RMS density matrix=1.00D-08 within 128 cycles.
 Requested convergence on MAX density matrix=1.00D-06.
 Requested convergence on             energy=1.00D-06.
 No special actions if energy rises.
 Integral accuracy reduced to 1.0D-05 until final iterations.

 Cycle   1  Pass 0  IDiag  1:
 Density matrix breaks symmetry, PCut= 1.00D-04
 Density has only Abelian symmetry.
 E= -54.4894712669760    
 DIIS: error= 2.98D-02 at cycle   1 NSaved=   1.
 NSaved= 1 IEnMin= 1 EnMin= -54.4894712669760     IErMin= 1 ErrMin= 2.98D-02
 ErrMax= 2.98D-02  0.00D+00 EMaxC= 1.00D-01 BMatC= 3.33D-02 BMatP= 3.33D-02
 IDIUse=3 WtCom= 7.02D-01 WtEn= 2.98D-01
 Coeff-Com:  0.100D+01
 Coeff-En:   0.100D+01
 Coeff:      0.100D+01
 Gap=     0.069 Goal=   None    Shift=    0.000
 Gap=     0.073 Goal=   None    Shift=    0.000
 GapD=    0.069 DampG=0.500 DampE=0.500 DampFc=0.2500 IDamp=-1.
 Damping current iteration by 2.50D-01
 RMSDP=5.18D-03 MaxDP=6.24D-02              OVMax= 9.70D-02

 Cycle   2  Pass 0  IDiag  1:
 Density matrix breaks symmetry, PCut= 1.00D-04
 Density has only Abelian symmetry.
 E= -54.4925113934038     Delta-E=       -0.003040126428 Rises=F Damp=T
 DIIS: error= 1.84D-02 at cycle   2 NSaved=   2.
 NSaved= 2 IEnMin= 2 EnMin= -54.4925113934038     IErMin= 2 ErrMin= 1.84D-02
 ErrMax= 1.84D-02  0.00D+00 EMaxC= 1.00D-01 BMatC= 1.42D-02 BMatP= 3.33D-02
 IDIUse=3 WtCom= 8.16D-01 WtEn= 1.84D-01
 Coeff-Com: -0.140D+01 0.240D+01
 Coeff-En:   0.000D+00 0.100D+01
 Coeff:     -0.115D+01 0.215D+01
 Gap=     0.071 Goal=   None    Shift=    0.000
 Gap=     0.073 Goal=   None    Shift=    0.000
 RMSDP=2.34D-03 MaxDP=2.90D-02 DE=-3.04D-03 OVMax= 3.22D-02

 Cycle   3  Pass 0  IDiag  1:
 Density matrix breaks symmetry, PCut= 1.00D-04
 Density has only Abelian symmetry.
 E= -54.4992220684548     Delta-E=       -0.006710675051 Rises=F Damp=F
 DIIS: error= 1.78D-03 at cycle   3 NSaved=   3.
 NSaved= 3 IEnMin= 3 EnMin= -54.4992220684548     IErMin= 3 ErrMin= 1.78D-03
 ErrMax= 1.78D-03  0.00D+00 EMaxC= 1.00D-01 BMatC= 8.78D-05 BMatP= 1.42D-02
 IDIUse=3 WtCom= 9.82D-01 WtEn= 1.78D-02
 Coeff-Com:  0.192D+00-0.300D+00 0.111D+01
 Coeff-En:   0.000D+00 0.000D+00 0.100D+01
 Coeff:      0.189D+00-0.294D+00 0.111D+01
 Gap=     0.071 Goal=   None    Shift=    0.000
 Gap=     0.072 Goal=   None    Shift=    0.000
 RMSDP=2.60D-04 MaxDP=3.94D-03 DE=-6.71D-03 OVMax= 5.19D-03

 Cycle   4  Pass 0  IDiag  1:
 Density matrix breaks symmetry, PCut= 1.00D-04
 Density has only Abelian symmetry.
 E= -54.4992609503528     Delta-E=       -0.000038881898 Rises=F Damp=F
 DIIS: error= 4.01D-04 at cycle   4 NSaved=   4.
 NSaved= 4 IEnMin= 4 EnMin= -54.4992609503528     IErMin= 4 ErrMin= 4.01D-04
 ErrMax= 4.01D-04  0.00D+00 EMaxC= 1.00D-01 BMatC= 3.49D-06 BMatP= 8.78D-05
 IDIUse=3 WtCom= 9.96D-01 WtEn= 4.01D-03
 Coeff-Com: -0.598D-01 0.817D-01-0.193D+00 0.117D+01
 Coeff-En:   0.000D+00 0.000D+00 0.000D+00 0.100D+01
 Coeff:     -0.596D-01 0.814D-01-0.192D+00 0.117D+01
 Gap=     0.071 Goal=   None    Shift=    0.000
 Gap=     0.072 Goal=   None    Shift=    0.000
 RMSDP=5.41D-05 MaxDP=7.12D-04 DE=-3.89D-05 OVMax= 1.09D-03

 Cycle   5  Pass 0  IDiag  1:
 Density matrix breaks symmetry, PCut= 1.00D-04
 Density has only Abelian symmetry.
 E= -54.4992625950190     Delta-E=       -0.000001644666 Rises=F Damp=F
 DIIS: error= 7.27D-05 at cycle   5 NSaved=   5.
 NSaved= 5 IEnMin= 5 EnMin= -54.4992625950190     IErMin= 5 ErrMin= 7.27D-05
 ErrMax= 7.27D-05  0.00D+00 EMaxC= 1.00D-01 BMatC= 8.00D-08 BMatP= 3.49D-06
 IDIUse=1 WtCom= 1.00D+00 WtEn= 0.00D+00
 Coeff-Com:  0.102D-01-0.132D-01 0.948D-02-0.156D+00 0.115D+01
 Coeff:      0.102D-01-0.132D-01 0.948D-02-0.156D+00 0.115D+01
 Gap=     0.071 Goal=   None    Shift=    0.000
 Gap=     0.072 Goal=   None    Shift=    0.000
 RMSDP=9.19D-06 MaxDP=1.32D-04 DE=-1.64D-06 OVMax= 2.27D-04

 Initial convergence to 1.0D-05 achieved.  Increase integral accuracy.
 Cycle   6  Pass 1  IDiag  1:
 Density matrix breaks symmetry, PCut= 1.00D-04
 Density has only Abelian symmetry.
 E= -54.4992608570182     Delta-E=        0.000001738001 Rises=F Damp=F
 DIIS: error= 9.93D-06 at cycle   1 NSaved=   1.
 NSaved= 1 IEnMin= 1 EnMin= -54.4992608570182     IErMin= 1 ErrMin= 9.93D-06
 ErrMax= 9.93D-06  0.00D+00 EMaxC= 1.00D-01 BMatC= 1.96D-09 BMatP= 1.96D-09
 IDIUse=1 WtCom= 1.00D+00 WtEn= 0.00D+00
 Coeff-Com:  0.100D+01
 Coeff:      0.100D+01
 Gap=     0.071 Goal=   None    Shift=    0.000
 Gap=     0.072 Goal=   None    Shift=    0.000
 RMSDP=9.19D-06 MaxDP=1.32D-04 DE= 1.74D-06 OVMax= 3.12D-05

 Cycle   7  Pass 1  IDiag  1:
 Density matrix breaks symmetry, PCut= 1.00D-04
 Density has only Abelian symmetry.
 E= -54.4992608579399     Delta-E=       -0.000000000922 Rises=F Damp=F
 DIIS: error= 4.54D-06 at cycle   2 NSaved=   2.
 NSaved= 2 IEnMin= 2 EnMin= -54.4992608579399     IErMin= 2 ErrMin= 4.54D-06
 ErrMax= 4.54D-06  0.00D+00 EMaxC= 1.00D-01 BMatC= 3.78D-10 BMatP= 1.96D-09
 IDIUse=1 WtCom= 1.00D+00 WtEn= 0.00D+00
 Coeff-Com:  0.141D+00 0.859D+00
 Coeff:      0.141D+00 0.859D+00
 Gap=     0.071 Goal=   None    Shift=    0.000
 Gap=     0.072 Goal=   None    Shift=    0.000
 RMSDP=4.96D-07 MaxDP=6.67D-06 DE=-9.22D-10 OVMax= 1.20D-05

 Cycle   8  Pass 1  IDiag  1:
 Density matrix breaks symmetry, PCut= 1.00D-04
 Density has only Abelian symmetry.
 E= -54.4992608580561     Delta-E=       -0.000000000116 Rises=F Damp=F
 DIIS: error= 2.21D-06 at cycle   3 NSaved=   3.
 NSaved= 3 IEnMin= 3 EnMin= -54.4992608580561     IErMin= 3 ErrMin= 2.21D-06
 ErrMax= 2.21D-06  0.00D+00 EMaxC= 1.00D-01 BMatC= 1.07D-10 BMatP= 3.78D-10
 IDIUse=1 WtCom= 1.00D+00 WtEn= 0.00D+00
 Coeff-Com: -0.150D+00 0.299D+00 0.851D+00
 Coeff:     -0.150D+00 0.299D+00 0.851D+00
 Gap=     0.071 Goal=   None    Shift=    0.000
 Gap=     0.072 Goal=   None    Shift=    0.000
 RMSDP=2.23D-07 MaxDP=3.03D-06 DE=-1.16D-10 OVMax= 5.55D-06

 Cycle   9  Pass 1  IDiag  1:
 Density matrix breaks symmetry, PCut= 1.00D-04
 Density has only Abelian symmetry.
 E= -54.4992608580909     Delta-E=       -0.000000000035 Rises=F Damp=F
 DIIS: error= 1.07D-07 at cycle   4 NSaved=   4.
 NSaved= 4 IEnMin= 4 EnMin= -54.4992608580909     IErMin= 4 ErrMin= 1.07D-07
 ErrMax= 1.07D-07  0.00D+00 EMaxC= 1.00D-01 BMatC= 3.61D-13 BMatP= 1.07D-10
 IDIUse=1 WtCom= 1.00D+00 WtEn= 0.00D+00
 Coeff-Com:  0.113D-01-0.479D-01-0.114D+00 0.115D+01
 Coeff:      0.113D-01-0.479D-01-0.114D+00 0.115D+01
 Gap=     0.071 Goal=   None    Shift=    0.000
 Gap=     0.072 Goal=   None    Shift=    0.000
 RMSDP=2.72D-08 MaxDP=2.90D-07 DE=-3.47D-11 OVMax= 5.35D-07

 Cycle  10  Pass 1  IDiag  1:
 Density matrix breaks symmetry, PCut= 1.00D-04
 Density has only Abelian symmetry.
 E= -54.4992608580912     Delta-E=       -0.000000000000 Rises=F Damp=F
 DIIS: error= 1.21D-08 at cycle   5 NSaved=   5.
 NSaved= 5 IEnMin= 5 EnMin= -54.4992608580912     IErMin= 5 ErrMin= 1.21D-08
 ErrMax= 1.21D-08  0.00D+00 EMaxC= 1.00D-01 BMatC= 4.03D-15 BMatP= 3.61D-13
 IDIUse=1 WtCom= 1.00D+00 WtEn= 0.00D+00
 Coeff-Com:  0.475D-03 0.695D-03 0.598D-02-0.124D+00 0.112D+01
 Coeff:      0.475D-03 0.695D-03 0.598D-02-0.124D+00 0.112D+01
 Gap=     0.071 Goal=   None    Shift=    0.000
 Gap=     0.072 Goal=   None    Shift=    0.000
 RMSDP=2.05D-09 MaxDP=3.39D-08 DE=-2.70D-13 OVMax= 3.80D-08

 Density matrix breaks symmetry, PCut= 1.00D-04
 Density has only Abelian symmetry.
 SCF Done:  E(UB3LYP) =  -54.4992608581     A.U. after   10 cycles
            NFock= 10  Conv=0.20D-08     -V/T= 2.0026
 <Sx>= 0.0000 <Sy>= 0.0000 <Sz>= 0.5000 <S**2>= 0.7518 S= 0.5009
 <L.S>=  0.00000000000    
 KE= 5.435911507633D+01 PE=-1.281144988180D+02 EE= 1.925612288353D+01
 Annihilation of the first spin contaminant:
 S**2 before annihilation     0.7518,   after     0.7500
 Leave Link  502 at Sun May 19 14:52:39 2024, MaxMem=  7516192768 cpu:              10.3 elap:               0.4
 (Enter /home/tmj/soft/g16/l801.exe)
 DoSCS=F DFT=T ScalE2(SS,OS)=  1.000000  1.000000
 Range of M.O.s used for correlation:     1    22
 NBasis=    22 NAE=     4 NBE=     3 NFC=     0 NFV=     0
 NROrb=     22 NOA=     4 NOB=     3 NVA=    18 NVB=    19

 **** Warning!!: The smallest alpha delta epsilon is  0.71152600D-01


 **** Warning!!: The smallest beta delta epsilon is  0.71633885D-01

 Leave Link  801 at Sun May 19 14:52:39 2024, MaxMem=  7516192768 cpu:               0.8 elap:               0.0
 (Enter /home/tmj/soft/g16/l1101.exe)
 Using compressed storage, NAtomX=     1.
 Will process      2 centers per pass.
 R6Disp: Adding Grimme-D3(BJ) dispersion energy 1st derivatives to the gradient.
 Leave Link 1101 at Sun May 19 14:52:39 2024, MaxMem=  7516192768 cpu:               5.4 elap:               0.2
 (Enter /home/tmj/soft/g16/l1102.exe)
 Symmetrizing basis deriv contribution to polar:
 IMax=3 JMax=2 DiffMx= 0.00D+00
 Leave Link 1102 at Sun May 19 14:52:39 2024, MaxMem=  7516192768 cpu:               0.7 elap:               0.0
 (Enter /home/tmj/soft/g16/l1110.exe)
 Forming Gx(P) for the SCF density, NAtomX=     1.
 Integral derivatives from FoFJK, PRISM(SPDF).
 Do as many integral derivatives as possible in FoFJK.
 G2DrvN: MDV=    7516192535.
 Density matrix has lower than full symmetry, NOpUse=  8 NOpAll= 48.
 G2DrvN: will do     2 centers at a time, making    1 passes.
 Calling FoFCou, ICntrl=  3107 FMM=F I1Cent=   0 AccDes= 0.00D+00.
 FoFJK:  IHMeth= 1 ICntrl=    3107 DoSepK=F KAlg= 0 I1Cent=           0 FoldK=F
 IRaf=         0 NMat=       1 IRICut=       1 DoRegI=T DoRafI=F ISym2E= 1 IDoP0=0 IntGTp=1.
 FoFCou: FMM=F IPFlag=           0 FMFlag=      100000 FMFlg1=           0
         NFxFlg=           0 DoJE=F BraDBF=F KetDBF=F FulRan=T
         wScrn=  0.000000 ICntrl=      3107 IOpCl=  1 I1Cent=           0 NGrid=           0
         NMat0=    1 NMatS0=      1 NMatT0=    0 NMatD0=    1 NMtDS0=    0 NMtDT0=    0
 Petite list used in FoFCou.
 End of G2Drv F.D. properties file   721 does not exist.
 End of G2Drv F.D. properties file   722 does not exist.
 End of G2Drv F.D. properties file   788 does not exist.
 Leave Link 1110 at Sun May 19 14:52:39 2024, MaxMem=  7516192768 cpu:               3.0 elap:               0.1
 (Enter /home/tmj/soft/g16/l1002.exe)
 Minotr:  UHF open shell wavefunction.
          IDoAtm=1
          Direct CPHF calculation.
          Differentiating once with respect to electric field.
                with respect to dipole field.
          Differentiating once with respect to nuclear coordinates.
 Density matrix has lower than full symmetry, NOpUse=  8 NOpAll= 48.
          Using symmetry in CPHF.
          Requested convergence is 1.0D-08 RMS, and 1.0D-07 maximum.
          Secondary convergence is 1.0D-12 RMS, and 1.0D-12 maximum.
          NewPWx=T KeepS1=F KeepF1=F KeepIn=T MapXYZ=F SortEE=F KeepMc=T.
          299 words used for storage of precomputed grid.
 Keep R1 and R2 ints in memory in symmetry-blocked form, NReq=24106854.
 FoFCou: FMM=F IPFlag=           0 FMFlag=           0 FMFlg1=           0
         NFxFlg=           0 DoJE=F BraDBF=F KetDBF=F FulRan=T
         wScrn=  0.000000 ICntrl=       600 IOpCl=  0 I1Cent=           0 NGrid=           0
         NMat0=    1 NMatS0=    253 NMatT0=    0 NMatD0=    1 NMtDS0=    0 NMtDT0=    0
 Petite list used in FoFCou.
          MDV=    7516192768 using IRadAn=       1.
          Solving linear equations simultaneously, MaxMat=       0.
 FoF2E skips out because all densities are zero.
 CalDSu exits because no D1Ps are significant.
          There are     6 degrees of freedom in the 1st order CPHF.  IDoFFX=6 NUNeed=     3.
      3 vectors produced by pass  0 Test12= 2.15D-15 1.67D-08 XBig12= 5.75D+00 1.72D+00.
 AX will form     3 AO Fock derivatives at one time.
      3 vectors produced by pass  1 Test12= 2.15D-15 1.67D-08 XBig12= 1.57D-01 2.20D-01.
      3 vectors produced by pass  2 Test12= 2.15D-15 1.67D-08 XBig12= 4.05D-03 3.71D-02.
      3 vectors produced by pass  3 Test12= 2.15D-15 1.67D-08 XBig12= 1.36D-05 1.98D-03.
      3 vectors produced by pass  4 Test12= 2.15D-15 1.67D-08 XBig12= 1.81D-08 7.29D-05.
      3 vectors produced by pass  5 Test12= 2.15D-15 1.67D-08 XBig12= 1.67D-11 1.80D-06.
      3 vectors produced by pass  6 Test12= 2.15D-15 1.67D-08 XBig12= 1.43D-14 5.09D-08.
 InvSVY:  IOpt=1 It=  1 EMax= 5.00D-17
 Solved reduced A of dimension    21 with     3 vectors.
 FullF1:  Do perturbations      1 to       3.
 Isotropic polarizability for W=    0.000000        4.71 Bohr**3.
 End of Minotr F.D. properties file   721 does not exist.
 End of Minotr F.D. properties file   722 does not exist.
 End of Minotr F.D. properties file   788 does not exist.
 Leave Link 1002 at Sun May 19 14:52:39 2024, MaxMem=  7516192768 cpu:               3.1 elap:               0.1
 (Enter /home/tmj/soft/g16/l601.exe)
 Copying SCF densities to generalized density rwf, IOpCl= 1 IROHF=0.
 SCF density gives NOpUse=  8 NOpAll= 48.
 Marking SCF density as not fully symmetric.

 **********************************************************************

            Population analysis using the SCF Density.

 **********************************************************************

 Orbital symmetries:
 Alpha Orbitals:
       Occupied  (A1G) (?A) (?B) (?B)
       Virtual   (?B) (A1G) (?B) (?B) (?B) (?B) (?B) (?B) (?A)
                 (T2G) (?A) (T2G) (T2G) (?A) (T1U) (T1U) (T1U)
                 (A1G)
 Beta  Orbitals:
       Occupied  (A1G) (?A) (?B)
       Virtual   (?B) (?B) (A1G) (?B) (?B) (?B) (?B) (?B) (?B)
                 (?A) (T2G) (?A) (T2G) (T2G) (?A) (T1U) (T1U) (T1U)
                 (A1G)
 Unable to determine electronic state:  an orbital has unidentified symmetry.
 Alpha  occ. eigenvalues --  -14.46213  -0.77505  -0.36486  -0.30072
 Alpha virt. eigenvalues --   -0.22957   0.05679   0.10307   0.10923   0.11043
 Alpha virt. eigenvalues --    0.71686   0.73701   0.75091   0.89413   1.85341
 Alpha virt. eigenvalues --    1.86209   1.89430   1.90342   1.91995   3.64273
 Alpha virt. eigenvalues --    3.67025   3.69869  35.05419
  Beta  occ. eigenvalues --  -14.44120  -0.70538  -0.27891
  Beta virt. eigenvalues --   -0.20728  -0.14957   0.06283   0.11095   0.11338
  Beta virt. eigenvalues --    0.12407   0.74818   0.76070   0.78438   0.92525
  Beta virt. eigenvalues --    1.91356   1.91621   1.93854   1.96472   1.97607
  Beta virt. eigenvalues --    3.68677   3.71626   3.74293  35.07608
          Condensed to atoms (all electrons):
               1
     1  N    7.000000
          Atomic-Atomic Spin Densities.
               1
     1  N    1.000000
 Mulliken charges and spin densities:
               1          2
     1  N   -0.000000   1.000000
 Sum of Mulliken charges =  -0.00000   1.00000
 Mulliken charges and spin densities with hydrogens summed into heavy atoms:
               1          2
     1  N   -0.000000   1.000000
 APT charges:
               1
     1  N   -0.000000
 Sum of APT charges =  -0.00000
 APT charges with hydrogens summed into heavy atoms:
               1
     1  N   -0.000000
 Electronic spatial extent (au):  <R**2>=             13.0782
 Charge=             -0.0000 electrons
 Dipole moment (field-independent basis, Debye):
    X=              0.0000    Y=              0.0000    Z=              0.0000  Tot=              0.0000
 Quadrupole moment (field-independent basis, Debye-Ang):
   XX=             -7.5316   YY=             -4.3337   ZZ=             -5.7254
   XY=             -0.0000   XZ=              0.0000   YZ=              0.0000
 Traceless Quadrupole moment (field-independent basis, Debye-Ang):
   XX=             -1.6680   YY=              1.5299   ZZ=              0.1381
   XY=             -0.0000   XZ=              0.0000   YZ=              0.0000
 Octapole moment (field-independent basis, Debye-Ang**2):
  XXX=              0.0000  YYY=              0.0000  ZZZ=              0.0000  XYY=              0.0000
  XXY=              0.0000  XXZ=              0.0000  XZZ=              0.0000  YZZ=              0.0000
  YYZ=              0.0000  XYZ=              0.0000
 Hexadecapole moment (field-independent basis, Debye-Ang**3):
 XXXX=             -9.6103 YYYY=             -3.4794 ZZZZ=             -5.6651 XXXY=             -0.0000
 XXXZ=              0.0000 YYYX=             -0.0000 YYYZ=              0.0000 ZZZX=              0.0000
 ZZZY=              0.0000 XXYY=             -2.1816 XXZZ=             -2.5459 YYZZ=             -1.5240
 XXYZ=              0.0000 YYXZ=              0.0000 ZZXY=             -0.0000
 N-N= 0.000000000000D+00 E-N=-1.281144987016D+02  KE= 5.435911507633D+01
 Symmetry AG   KE= 4.883982714395D+01
 Symmetry B1G  KE= 3.388337423841D-36
 Symmetry B2G  KE= 8.509840168643D-36
 Symmetry B3G  KE= 8.455871449368D-36
 Symmetry AU   KE= 0.000000000000D+00
 Symmetry B1U  KE= 1.924172750024D+00
 Symmetry B2U  KE= 1.034700758738D-32
 Symmetry B3U  KE= 3.595115182351D+00
 Symmetry AG   SP= 2.499358285969D-15
 Symmetry B1G  SP= 5.044739584105D-38
 Symmetry B2G  SP= 1.513827669248D-36
 Symmetry B3G  SP=-1.664879233848D-36
 Symmetry AU   SP= 0.000000000000D+00
 Symmetry B1U  SP= 1.000000000000D+00
 Symmetry B2U  SP= 1.874699728327D-33
 Symmetry B3U  SP=-6.414356757100D-16
  Exact polarizability:       5.649      -0.000       3.913      -0.000      -0.000       4.562
 Approx polarizability:       5.077      -0.000       5.832      -0.000      -0.000       4.432
                          Isotropic Fermi Contact Couplings
        Atom                 a.u.       MegaHertz       Gauss      10(-4) cm-1
     1  N(14)              0.02097       6.77474       2.41740       2.25981
 --------------------------------------------------------
       Center         ----  Spin Dipole Couplings  ----
                      3XX-RR        3YY-RR        3ZZ-RR
 --------------------------------------------------------
     1   Atom       -1.222525     -1.339414      2.561939
 --------------------------------------------------------
                        XY            XZ            YZ
 --------------------------------------------------------
     1   Atom        0.000000      0.000000      0.000000
 --------------------------------------------------------


 ---------------------------------------------------------------------------------
              Anisotropic Spin Dipole Couplings in Principal Axis System
 ---------------------------------------------------------------------------------

       Atom             a.u.   MegaHertz   Gauss  10(-4) cm-1        Axes

              Baa    -1.3394   -51.658   -18.433   -17.231 -0.0000  1.0000  0.0000
     1 N(14)  Bbb    -1.2225   -47.150   -16.824   -15.728  1.0000  0.0000  0.0000
              Bcc     2.5619    98.808    35.257    32.959  0.0000  0.0000  1.0000
 

 ---------------------------------------------------------------------------------

 No NMR shielding tensors so no spin-rotation constants.
 Leave Link  601 at Sun May 19 14:52:40 2024, MaxMem=  7516192768 cpu:               3.1 elap:               0.1
 (Enter /home/tmj/soft/g16/l701.exe)
 ... and contract with generalized density number  0.
 Compute integral second derivatives.
 Density matrix has only Abelian symmetry.
 R6Disp: Adding Grimme-D3(BJ) dispersion energy 2nd derivatives to the Hessian.
 Leave Link  701 at Sun May 19 14:52:40 2024, MaxMem=  7516192768 cpu:               3.0 elap:               0.1
 (Enter /home/tmj/soft/g16/l702.exe)
 L702 exits ... SP integral derivatives will be done elsewhere.
 Leave Link  702 at Sun May 19 14:52:40 2024, MaxMem=  7516192768 cpu:               0.5 elap:               0.0
 (Enter /home/tmj/soft/g16/l703.exe)
 Integral derivatives from FoFJK, PRISM(SPDF).
 Compute integral second derivatives, UseDBF=F ICtDFT=           0.
 Density matrix has only Abelian symmetry.
 Calling FoFJK, ICntrl=    100127 FMM=F ISym2X=1 I1Cent= 0 IOpClX= 1 NMat=1 NMatS=1 NMatT=0.
 FoFJK:  IHMeth= 1 ICntrl=  100127 DoSepK=F KAlg= 0 I1Cent=           0 FoldK=F
 IRaf=         0 NMat=       1 IRICut=       1 DoRegI=T DoRafI=F ISym2E= 1 IDoP0=0 IntGTp=1.
 FoFCou: FMM=F IPFlag=           0 FMFlag=      100000 FMFlg1=         800
         NFxFlg=           0 DoJE=F BraDBF=F KetDBF=F FulRan=T
         wScrn=  0.000000 ICntrl=    100127 IOpCl=  1 I1Cent=           0 NGrid=           0
         NMat0=    1 NMatS0=      1 NMatT0=    0 NMatD0=    1 NMtDS0=    0 NMtDT0=    0
 Petite list used in FoFCou.
 Leave Link  703 at Sun May 19 14:52:40 2024, MaxMem=  7516192768 cpu:               7.6 elap:               0.3
 (Enter /home/tmj/soft/g16/l716.exe)
 Dipole        = 0.00000000D+00 0.00000000D+00 0.00000000D+00
 Polarizability= 5.64932809D+00-1.77922087D-12 3.91301139D+00
                -9.18749792D-13-1.39815608D-12 4.56209323D+00
 Full mass-weighted force constant matrix:
 Low frequencies ---    0.0001    0.0001    0.0001
 Diagonal vibrational polarizability:
        0.0000000       0.0000000       0.0000000
 Harmonic frequencies (cm**-1), IR intensities (KM/Mole), Raman scattering
 activities (A**4/AMU), depolarization ratios for plane and unpolarized
 incident light, reduced masses (AMU), force constants (mDyne/A),
 and normal coordinates:

 -------------------
 - Thermochemistry -
 -------------------
 Temperature   298.150 Kelvin.  Pressure   1.00000 Atm.
 Atom     1 has atomic number  7 and mass  14.00307
 Molecular mass:    14.00307 amu.
 Zero-point vibrational energy          0.0 (Joules/Mol)
                                    0.00000 (Kcal/Mol)
 Vibrational temperatures: 
          (Kelvin)
 
 Zero-point correction=                           0.000000 (Hartree/Particle)
 Thermal correction to Energy=                    0.001416
 Thermal correction to Enthalpy=                  0.002360
 Thermal correction to Gibbs Free Energy=        -0.014381
 Sum of electronic and zero-point Energies=            -54.499261
 Sum of electronic and thermal Energies=               -54.497845
 Sum of electronic and thermal Enthalpies=             -54.496900
 Sum of electronic and thermal Free Energies=          -54.513642
 
                     E (Thermal)             CV                S
                      KCal/Mol        Cal/Mol-Kelvin    Cal/Mol-Kelvin
 Total                    0.889              2.981             35.235
 Electronic               0.000              0.000              1.377
 Translational            0.889              2.981             33.858
 Rotational               0.000              0.000              0.000
 Vibrational              0.000              0.000              0.000
                       Q            Log10(Q)             Ln(Q)
 Total Bot       0.411926D+07          6.614819         15.231184
 Total V=0       0.411926D+07          6.614819         15.231184
 Vib (Bot)       0.100000D+01          0.000000          0.000000
 Vib (V=0)       0.100000D+01          0.000000          0.000000
 Electronic      0.200000D+01          0.301030          0.693147
 Translational   0.205963D+07          6.313789         14.538036
 Rotational      0.100000D+01          0.000000          0.000000
 ***** Axes restored to original set *****
 -------------------------------------------------------------------
 Center     Atomic                   Forces (Hartrees/Bohr)
 Number     Number              X              Y              Z
 -------------------------------------------------------------------
      1        7          -0.000000000   -0.000000000   -0.000000000
 -------------------------------------------------------------------
 Cartesian Forces:  Max     0.000000000 RMS     0.000000000
 Z-matrix is all fixed cartesians, so copy forces.
 Force constants in Cartesian coordinates: 
                1             2             3 
      1  0.000000D+00
      2  0.000000D+00  0.000000D+00
      3  0.000000D+00  0.000000D+00  0.000000D+00
 Leave Link  716 at Sun May 19 14:52:40 2024, MaxMem=  7516192768 cpu:               0.6 elap:               0.0
 (Enter /home/tmj/soft/g16/l103.exe)

 GradGradGradGradGradGradGradGradGradGradGradGradGradGradGradGradGradGrad
 Berny optimization.
 Search for a local minimum.
 Step number   1 out of a maximum of    2
 All quantities printed in internal units (Hartrees-Bohrs-Radians)
 Second derivative matrix not updated -- analytic derivatives used.
 The second derivative matrix:
                          X1        Y1        Z1
           X1           0.00000
           Y1           0.00000   0.00000
           Z1          -0.00000  -0.00000   0.00000
 ITU=  0
     Eigenvalues --- 
 Angle between quadratic step and forces=  90.00 degrees.
 Linear search not attempted -- first point.
 B after Tr=     0.000000    0.000000    0.000000
         Rot=    1.000000    0.000000    0.000000    0.000000 Ang=   0.00 deg.
 Variable       Old X    -DE/DX   Delta X   Delta X   Delta X     New X
                                 (Linear)    (Quad)   (Total)
    X1        0.00000  -0.00000   0.00000   0.00000   0.00000   0.00000
    Y1        0.00000  -0.00000   0.00000   0.00000   0.00000   0.00000
    Z1        0.00000  -0.00000   0.00000   0.00000   0.00000   0.00000
         Item               Value     Threshold  Converged?
 Maximum Force            0.000000     0.000450     YES
 RMS     Force            0.000000     0.000300     YES
 Maximum Displacement     0.000000     0.001800     YES
 RMS     Displacement     0.000000     0.001200     YES
 Predicted change in Energy=-0.000000D+00
 Optimization completed.
    -- Stationary point found.
 GradGradGradGradGradGradGradGradGradGradGradGradGradGradGradGradGradGrad

 Leave Link  103 at Sun May 19 14:52:40 2024, MaxMem=  7516192768 cpu:               2.2 elap:               0.1
 (Enter /home/tmj/soft/g16/l9999.exe)
 Dipole is zero, so no output in dipole orientation.

 ----------------------------------------------------------------------

 Electric dipole moment (input orientation):
 (Debye = 10**-18 statcoulomb cm , SI units = C m)
                  (au)            (Debye)         (10**-30 SI)
   Tot        0.000000D+00      0.000000D+00      0.000000D+00
   x          0.000000D+00      0.000000D+00      0.000000D+00
   y          0.000000D+00      0.000000D+00      0.000000D+00
   z          0.000000D+00      0.000000D+00      0.000000D+00

 Dipole polarizability, Alpha (input orientation).
 (esu units = cm**3 , SI units = C**2 m**2 J**-1)
 Alpha(0;0):
               (au)            (10**-24 esu)      (10**-40 SI)
   iso        0.470814D+01      0.697675D+00      0.776268D+00
   aniso      0.151957D+01      0.225177D+00      0.250543D+00
   xx         0.456209D+01      0.676032D+00      0.752188D+00
   yx         0.000000D+00      0.000000D+00      0.000000D+00
   yy         0.391301D+01      0.579848D+00      0.645168D+00
   zx         0.000000D+00      0.000000D+00      0.000000D+00
   zy         0.000000D+00      0.000000D+00      0.000000D+00
   zz         0.564933D+01      0.837144D+00      0.931448D+00

 ----------------------------------------------------------------------
 Unable to Open any file for archive entry.
 1\1\GINC-TMJ\Freq\UB3LYP\6-311+G(d,p)\N1(2)\TMJ\19-May-2024\0\\#p freq
  b3lyp/6-311+g** em=gd3bj\\Title: N-b3lyp-d3-6-311+g**\\0,2\N,0.,0.,0.
 \\Version=ES64L-G16RevC.01\HF=-54.4992609\S2=0.75178\S2-1=0.\S2A=0.750
 001\RMSD=2.045e-09\RMSF=0.000e+00\Thermal=0.0014163\ETot=-54.4978446\H
 Tot=-54.4969004\GTot=-54.5136419\Dipole=0.,0.,0.\DipoleDeriv=0.,0.,0.,
 0.,0.,0.,0.,0.,0.\Polar=4.5620932,0.,3.9130114,0.,0.,5.6493281\Quadrup
 ole=0.1026883,1.1374374,-1.2401257,0.,0.,0.\PG=OH [O(N1)]\NImag=0\\0.,
 0.,0.,0.,0.,0.\\0.,0.,0.\\\@
 The archive entry for this job was punched.


 UNLESS WE CHANGE DIRECTIONS, WE WILL WIND UP WHERE WE ARE HEADED.
     -- CONFUCIUS
 Job cpu time:       0 days  0 hours  0 minutes 53.7 seconds.
 Elapsed time:       0 days  0 hours  0 minutes  2.1 seconds.
 File lengths (MBytes):  RWF=      6 Int=      0 D2E=      0 Chk=      1 Scr=      1
 Normal termination of Gaussian 16 at Sun May 19 14:52:40 2024.
