 Entering Gaussian System, Link 0=g16
 Input=O-b3lyp-d3-6-311+G**.gjf
 Output=O-b3lyp-d3-6-311+G**.log
 Initial command:
 /home/tmj/soft/g16/l1.exe "/home/tmj/soft/g16temp/Gau-602792.inp" -scrdir="/home/tmj/soft/g16temp/"
 Entering Link 1 = /home/tmj/soft/g16/l1.exe PID=    602794.
  
 Copyright (c) 1988-2019, Gaussian, Inc.  All Rights Reserved.
  
 This is part of the Gaussian(R) 16 program.  It is based on
 the Gaussian(R) 09 system (copyright 2009, Gaussian, Inc.),
 the Gaussian(R) 03 system (copyright 2003, Gaussian, Inc.),
 the Gaussian(R) 98 system (copyright 1998, Gaussian, Inc.),
 the Gaussian(R) 94 system (copyright 1995, Gaussian, Inc.),
 the Gaussian 92(TM) system (copyright 1992, Gaussian, Inc.),
 the Gaussian 90(TM) system (copyright 1990, Gaussian, Inc.),
 the Gaussian 88(TM) system (copyright 1988, Gaussian, Inc.),
 the Gaussian 86(TM) system (copyright 1986, Carnegie Mellon
 University), and the Gaussian 82(TM) system (copyright 1983,
 Carnegie Mellon University). Gaussian is a federally registered
 trademark of Gaussian, Inc.
  
 This software contains proprietary and confidential information,
 including trade secrets, belonging to Gaussian, Inc.
  
 This software is provided under written license and may be
 used, copied, transmitted, or stored only in accord with that
 written license.
  
 The following legend is applicable only to US Government
 contracts under FAR:
  
                    RESTRICTED RIGHTS LEGEND
  
 Use, reproduction and disclosure by the US Government is
 subject to restrictions as set forth in subparagraphs (a)
 and (c) of the Commercial Computer Software - Restricted
 Rights clause in FAR 52.227-19.
  
 Gaussian, Inc.
 340 Quinnipiac St., Bldg. 40, Wallingford CT 06492
  
  
 ---------------------------------------------------------------
 Warning -- This program may not be used in any manner that
 competes with the business of Gaussian, Inc. or will provide
 assistance to any competitor of Gaussian, Inc.  The licensee
 of this program is prohibited from giving any competitor of
 Gaussian, Inc. access to this program.  By using this program,
 the user acknowledges that Gaussian, Inc. is engaged in the
 business of creating and licensing software in the field of
 computational chemistry and represents and warrants to the
 licensee that it is not a competitor of Gaussian, Inc. and that
 it will not use this program in any manner prohibited above.
 ---------------------------------------------------------------
  

 Cite this work as:
 Gaussian 16, Revision C.01,
 M. J. Frisch, G. W. Trucks, H. B. Schlegel, G. E. Scuseria, 
 M. A. Robb, J. R. Cheeseman, G. Scalmani, V. Barone, 
 G. A. Petersson, H. Nakatsuji, X. Li, M. Caricato, A. V. Marenich, 
 J. Bloino, B. G. Janesko, R. Gomperts, B. Mennucci, H. P. Hratchian, 
 J. V. Ortiz, A. F. Izmaylov, J. L. Sonnenberg, D. Williams-Young, 
 F. Ding, F. Lipparini, F. Egidi, J. Goings, B. Peng, A. Petrone, 
 T. Henderson, D. Ranasinghe, V. G. Zakrzewski, J. Gao, N. Rega, 
 G. Zheng, W. Liang, M. Hada, M. Ehara, K. Toyota, R. Fukuda, 
 J. Hasegawa, M. Ishida, T. Nakajima, Y. Honda, O. Kitao, H. Nakai, 
 T. Vreven, K. Throssell, J. A. Montgomery, Jr., J. E. Peralta, 
 F. Ogliaro, M. J. Bearpark, J. J. Heyd, E. N. Brothers, K. N. Kudin, 
 V. N. Staroverov, T. A. Keith, R. Kobayashi, J. Normand, 
 K. Raghavachari, A. P. Rendell, J. C. Burant, S. S. Iyengar, 
 J. Tomasi, M. Cossi, J. M. Millam, M. Klene, C. Adamo, R. Cammi, 
 J. W. Ochterski, R. L. Martin, K. Morokuma, O. Farkas, 
 J. B. Foresman, and D. J. Fox, Gaussian, Inc., Wallingford CT, 2019.
 
 ******************************************
 Gaussian 16:  ES64L-G16RevC.01  3-Jul-2019
                19-May-2024 
 ******************************************
 %nproc=28
 Will use up to   28 processors via shared memory.
 %mem=56GB
 --------------------------------
 #p freq b3lyp/6-311+g** em=gd3bj
 --------------------------------
 1/10=4,30=1,38=1/1,3;
 2/12=2,17=6,18=5,40=1/2;
 3/5=4,6=6,7=111,11=2,25=1,30=1,71=2,74=-5,124=41,140=1/1,2,3;
 4//1;
 5/5=2,38=5,98=1/2;
 8/6=4,10=90,11=11/1;
 11/6=1,8=1,9=11,15=111,16=1/1,2,10;
 10/6=1/2;
 6/7=2,8=2,9=2,10=2,28=1/1;
 7/8=1,10=1,25=1/1,2,3,16;
 1/10=4,30=1/3;
 99//99;
 Leave Link    1 at Sun May 19 14:52:32 2024, MaxMem=  7516192768 cpu:               0.9 elap:               0.0
 (Enter /home/tmj/soft/g16/l101.exe)
 ---------------------------
 Title: O-b3lyp-d3-6-311+g**
 ---------------------------
 Symbolic Z-matrix:
 Charge =  0 Multiplicity = 1
 O                     0.        0.        0. 
 
 ITRead=  0
 MicOpt= -1
 NAtoms=      1 NQM=        1 NQMF=       0 NMMI=      0 NMMIF=      0
                NMic=       0 NMicF=      0.
                    Isotopes and Nuclear Properties:
 (Nuclear quadrupole moments (NQMom) in fm**2, nuclear magnetic moments (NMagM)
  in nuclear magnetons)

  Atom         1
 IAtWgt=          16
 AtmWgt=  15.9949146
 NucSpn=           0
 AtZEff=  -0.0000000
 NQMom=    0.0000000
 NMagM=    0.0000000
 AtZNuc=   8.0000000
 Leave Link  101 at Sun May 19 14:52:32 2024, MaxMem=  7516192768 cpu:               1.5 elap:               0.1
 (Enter /home/tmj/soft/g16/l103.exe)

 GradGradGradGradGradGradGradGradGradGradGradGradGradGradGradGradGradGrad
 Berny optimization.
 Initialization pass.
 Trust Radius=3.00D-01 FncErr=1.00D-07 GrdErr=1.00D-07 EigMax=2.50D+02 EigMin=1.00D-04
 Number of steps in this run=      2 maximum allowed number of steps=      2.
 GradGradGradGradGradGradGradGradGradGradGradGradGradGradGradGradGradGrad

 Leave Link  103 at Sun May 19 14:52:32 2024, MaxMem=  7516192768 cpu:               0.8 elap:               0.0
 (Enter /home/tmj/soft/g16/l202.exe)
                          Input orientation:                          
 ---------------------------------------------------------------------
 Center     Atomic      Atomic             Coordinates (Angstroms)
 Number     Number       Type             X           Y           Z
 ---------------------------------------------------------------------
      1          8           0        0.000000    0.000000    0.000000
 ---------------------------------------------------------------------
 Stoichiometry    O
 Framework group  OH[O(O)]
 Deg. of freedom     0
 Full point group                 OH      NOp  48
 Largest Abelian subgroup         D2H     NOp   8
 Largest concise Abelian subgroup C1      NOp   1
                         Standard orientation:                         
 ---------------------------------------------------------------------
 Center     Atomic      Atomic             Coordinates (Angstroms)
 Number     Number       Type             X           Y           Z
 ---------------------------------------------------------------------
      1          8           0        0.000000    0.000000    0.000000
 ---------------------------------------------------------------------
 Leave Link  202 at Sun May 19 14:52:32 2024, MaxMem=  7516192768 cpu:               3.9 elap:               0.2
 (Enter /home/tmj/soft/g16/l301.exe)
 Standard basis: 6-311+G(d,p) (5D, 7F)
 Ernie: Thresh=  0.10000D-02 Tol=  0.10000D-05 Strict=F.
 There are     8 symmetry adapted cartesian basis functions of AG  symmetry.
 There are     1 symmetry adapted cartesian basis functions of B1G symmetry.
 There are     1 symmetry adapted cartesian basis functions of B2G symmetry.
 There are     1 symmetry adapted cartesian basis functions of B3G symmetry.
 There are     0 symmetry adapted cartesian basis functions of AU  symmetry.
 There are     4 symmetry adapted cartesian basis functions of B1U symmetry.
 There are     4 symmetry adapted cartesian basis functions of B2U symmetry.
 There are     4 symmetry adapted cartesian basis functions of B3U symmetry.
 There are     7 symmetry adapted basis functions of AG  symmetry.
 There are     1 symmetry adapted basis functions of B1G symmetry.
 There are     1 symmetry adapted basis functions of B2G symmetry.
 There are     1 symmetry adapted basis functions of B3G symmetry.
 There are     0 symmetry adapted basis functions of AU  symmetry.
 There are     4 symmetry adapted basis functions of B1U symmetry.
 There are     4 symmetry adapted basis functions of B2U symmetry.
 There are     4 symmetry adapted basis functions of B3U symmetry.
    22 basis functions,    36 primitive gaussians,    23 cartesian basis functions
     4 alpha electrons        4 beta electrons
       nuclear repulsion energy         0.0000000000 Hartrees.
 IExCor=  402 DFT=T Ex+Corr=B3LYP ExCW=0 ScaHFX=  0.200000
 ScaDFX=  0.800000  0.720000  1.000000  0.810000 ScalE2=  1.000000  1.000000
 IRadAn=      5 IRanWt=     -1 IRanGd=            0 ICorTp=0 IEmpDi=141
 NAtoms=    1 NActive=    1 NUniq=    1 SFac= 1.00D+00 NAtFMM=   60 NAOKFM=F Big=F
 Integral buffers will be    131072 words long.
 Raffenetti 2 integral format.
 Two-electron integral symmetry is turned on.
 R6Disp:  Grimme-D3(BJ) Dispersion energy=        0.0000000000 Hartrees.
 Nuclear repulsion after empirical dispersion term =        0.0000000000 Hartrees.
 Leave Link  301 at Sun May 19 14:52:32 2024, MaxMem=  7516192768 cpu:               0.9 elap:               0.0
 (Enter /home/tmj/soft/g16/l302.exe)
 NPDir=0 NMtPBC=     1 NCelOv=     1 NCel=       1 NClECP=     1 NCelD=      1
         NCelK=      1 NCelE2=     1 NClLst=     1 CellRange=     0.0.
 One-electron integrals computed using PRISM.
 One-electron integral symmetry used in STVInt
 NBasis=    22 RedAO= T EigKep=  7.57D-02  NBF=     7     1     1     1     0     4     4     4
 NBsUse=    22 1.00D-06 EigRej= -1.00D+00 NBFU=     7     1     1     1     0     4     4     4
 Precomputing XC quadrature grid using
 IXCGrd= 4 IRadAn=           5 IRanWt=          -1 IRanGd=           0 AccXCQ= 0.00D+00.
 Generated NRdTot=       0 NPtTot=           0 NUsed=           0 NTot=          32
 NSgBfM=    23    23    23    23    23 MxSgAt=     1 MxSgA2=     1.
 Leave Link  302 at Sun May 19 14:52:33 2024, MaxMem=  7516192768 cpu:               1.9 elap:               0.1
 (Enter /home/tmj/soft/g16/l303.exe)
 DipDrv:  MaxL=1.
 Leave Link  303 at Sun May 19 14:52:33 2024, MaxMem=  7516192768 cpu:               0.4 elap:               0.0
 (Enter /home/tmj/soft/g16/l401.exe)
 ExpMin= 8.45D-02 ExpMax= 8.59D+03 ExpMxC= 1.30D+03 IAcc=3 IRadAn=         5 AccDes= 0.00D+00
 Harris functional with IExCor=  402 and IRadAn=       5 diagonalized for initial guess.
 HarFok:  IExCor=  402 AccDes= 0.00D+00 IRadAn=         5 IDoV= 1 UseB2=F ITyADJ=14
 ICtDFT=  3500011 ScaDFX=  1.000000  1.000000  1.000000  1.000000
 FoFCou: FMM=F IPFlag=           0 FMFlag=      100000 FMFlg1=           0
         NFxFlg=           0 DoJE=T BraDBF=F KetDBF=T FulRan=T
         wScrn=  0.000000 ICntrl=       500 IOpCl=  0 I1Cent=   200000004 NGrid=           0
         NMat0=    1 NMatS0=      1 NMatT0=    0 NMatD0=    1 NMtDS0=    0 NMtDT0=    0
 Petite list used in FoFCou.
 Harris En= -75.0067110703104    
 JPrj=0 DoOrth=F DoCkMO=F.
 Initial guess orbital symmetries:
       Occupied  (A1G) (A1G) (T1U) (T1U)
       Virtual   (T1U) (A1G) (T1U) (T1U) (T1U) (T1U) (T1U) (T1U)
                 (A1G) (T2G) (T2G) (T2G) (EG) (EG) (T1U) (T1U)
                 (T1U) (A1G)
 Leave Link  401 at Sun May 19 14:52:33 2024, MaxMem=  7516192768 cpu:               4.4 elap:               0.2
 (Enter /home/tmj/soft/g16/l502.exe)
 Keep R1 ints in memory in symmetry-blocked form, NReq=24203796.
 FoFCou: FMM=F IPFlag=           0 FMFlag=           0 FMFlg1=           0
         NFxFlg=           0 DoJE=F BraDBF=F KetDBF=F FulRan=T
         wScrn=  0.000000 ICntrl=       600 IOpCl=  0 I1Cent=           0 NGrid=           0
         NMat0=    1 NMatS0=    253 NMatT0=    0 NMatD0=    1 NMtDS0=    0 NMtDT0=    0
 Petite list used in FoFCou.
 Closed shell SCF:
 Using DIIS extrapolation, IDIIS=  1040.
 NGot=  7516192768 LenX=  7516182422 LenY=  7516181452
 Requested convergence on RMS density matrix=1.00D-08 within 128 cycles.
 Requested convergence on MAX density matrix=1.00D-06.
 Requested convergence on             energy=1.00D-06.
 No special actions if energy rises.
 Integral accuracy reduced to 1.0D-05 until final iterations.

 Cycle   1  Pass 0  IDiag  1:
 Density matrix breaks symmetry, PCut= 1.00D-04
 Density has only Abelian symmetry.
 E= -74.9864887719192    
 DIIS: error= 1.23D-02 at cycle   1 NSaved=   1.
 NSaved= 1 IEnMin= 1 EnMin= -74.9864887719192     IErMin= 1 ErrMin= 1.23D-02
 ErrMax= 1.23D-02  0.00D+00 EMaxC= 1.00D-01 BMatC= 3.68D-03 BMatP= 3.68D-03
 IDIUse=3 WtCom= 8.77D-01 WtEn= 1.23D-01
 Coeff-Com:  0.100D+01
 Coeff-En:   0.100D+01
 Coeff:      0.100D+01
 Gap=     0.080 Goal=   None    Shift=    0.000
 GapD=    0.080 DampG=0.500 DampE=0.500 DampFc=0.2500 IDamp=-1.
 Damping current iteration by 2.50D-01
 RMSDP=2.40D-03 MaxDP=2.53D-02              OVMax= 2.90D-02

 Cycle   2  Pass 0  IDiag  1:
 Density matrix breaks symmetry, PCut= 1.00D-04
 Density has only Abelian symmetry.
 E= -74.9872681696172     Delta-E=       -0.000779397698 Rises=F Damp=T
 DIIS: error= 8.50D-03 at cycle   2 NSaved=   2.
 NSaved= 2 IEnMin= 2 EnMin= -74.9872681696172     IErMin= 2 ErrMin= 8.50D-03
 ErrMax= 8.50D-03  0.00D+00 EMaxC= 1.00D-01 BMatC= 1.69D-03 BMatP= 3.68D-03
 IDIUse=3 WtCom= 9.15D-01 WtEn= 8.50D-02
 Coeff-Com: -0.143D+01 0.243D+01
 Coeff-En:   0.000D+00 0.100D+01
 Coeff:     -0.131D+01 0.231D+01
 Gap=     0.080 Goal=   None    Shift=    0.000
 RMSDP=8.34D-04 MaxDP=6.73D-03 DE=-7.79D-04 OVMax= 1.46D-02

 Cycle   3  Pass 0  IDiag  1:
 Density matrix breaks symmetry, PCut= 1.00D-04
 Density has only Abelian symmetry.
 E= -74.9888806989910     Delta-E=       -0.001612529374 Rises=F Damp=F
 DIIS: error= 1.59D-03 at cycle   3 NSaved=   3.
 NSaved= 3 IEnMin= 3 EnMin= -74.9888806989910     IErMin= 3 ErrMin= 1.59D-03
 ErrMax= 1.59D-03  0.00D+00 EMaxC= 1.00D-01 BMatC= 4.05D-05 BMatP= 1.69D-03
 IDIUse=3 WtCom= 9.84D-01 WtEn= 1.59D-02
 Coeff-Com: -0.378D+00 0.501D+00 0.877D+00
 Coeff-En:   0.000D+00 0.000D+00 0.100D+01
 Coeff:     -0.372D+00 0.493D+00 0.879D+00
 Gap=     0.081 Goal=   None    Shift=    0.000
 RMSDP=1.41D-04 MaxDP=1.66D-03 DE=-1.61D-03 OVMax= 1.72D-03

 Cycle   4  Pass 0  IDiag  1:
 Density matrix breaks symmetry, PCut= 1.00D-04
 Density has only Abelian symmetry.
 E= -74.9889073346868     Delta-E=       -0.000026635696 Rises=F Damp=F
 DIIS: error= 2.13D-05 at cycle   4 NSaved=   4.
 NSaved= 4 IEnMin= 4 EnMin= -74.9889073346868     IErMin= 4 ErrMin= 2.13D-05
 ErrMax= 2.13D-05  0.00D+00 EMaxC= 1.00D-01 BMatC= 7.76D-09 BMatP= 4.05D-05
 IDIUse=1 WtCom= 1.00D+00 WtEn= 0.00D+00
 Coeff-Com: -0.187D-01 0.245D-01 0.324D-01 0.962D+00
 Coeff:     -0.187D-01 0.245D-01 0.324D-01 0.962D+00
 Gap=     0.081 Goal=   None    Shift=    0.000
 RMSDP=2.49D-06 MaxDP=3.11D-05 DE=-2.66D-05 OVMax= 2.77D-05

 Initial convergence to 1.0D-05 achieved.  Increase integral accuracy.
 Cycle   5  Pass 1  IDiag  1:
 Density matrix breaks symmetry, PCut= 1.00D-04
 Density has only Abelian symmetry.
 E= -74.9889062647286     Delta-E=        0.000001069958 Rises=F Damp=F
 DIIS: error= 1.37D-06 at cycle   1 NSaved=   1.
 NSaved= 1 IEnMin= 1 EnMin= -74.9889062647286     IErMin= 1 ErrMin= 1.37D-06
 ErrMax= 1.37D-06  0.00D+00 EMaxC= 1.00D-01 BMatC= 2.74D-11 BMatP= 2.74D-11
 IDIUse=1 WtCom= 1.00D+00 WtEn= 0.00D+00
 Coeff-Com:  0.100D+01
 Coeff:      0.100D+01
 Gap=     0.081 Goal=   None    Shift=    0.000
 RMSDP=2.49D-06 MaxDP=3.11D-05 DE= 1.07D-06 OVMax= 1.68D-06

 Cycle   6  Pass 1  IDiag  1:
 Density matrix breaks symmetry, PCut= 1.00D-04
 Density has only Abelian symmetry.
 E= -74.9889062647446     Delta-E=       -0.000000000016 Rises=F Damp=F
 DIIS: error= 5.35D-07 at cycle   2 NSaved=   2.
 NSaved= 2 IEnMin= 2 EnMin= -74.9889062647446     IErMin= 2 ErrMin= 5.35D-07
 ErrMax= 5.35D-07  0.00D+00 EMaxC= 1.00D-01 BMatC= 4.68D-12 BMatP= 2.74D-11
 IDIUse=1 WtCom= 1.00D+00 WtEn= 0.00D+00
 Coeff-Com:  0.219D+00 0.781D+00
 Coeff:      0.219D+00 0.781D+00
 Gap=     0.081 Goal=   None    Shift=    0.000
 RMSDP=7.92D-08 MaxDP=9.69D-07 DE=-1.60D-11 OVMax= 9.42D-07

 Cycle   7  Pass 1  IDiag  1:
 Density matrix breaks symmetry, PCut= 1.00D-04
 Density has only Abelian symmetry.
 E= -74.9889062647468     Delta-E=       -0.000000000002 Rises=F Damp=F
 DIIS: error= 3.13D-07 at cycle   3 NSaved=   3.
 NSaved= 3 IEnMin= 3 EnMin= -74.9889062647468     IErMin= 3 ErrMin= 3.13D-07
 ErrMax= 3.13D-07  0.00D+00 EMaxC= 1.00D-01 BMatC= 1.38D-12 BMatP= 4.68D-12
 IDIUse=1 WtCom= 1.00D+00 WtEn= 0.00D+00
 Coeff-Com: -0.187D-01 0.346D+00 0.673D+00
 Coeff:     -0.187D-01 0.346D+00 0.673D+00
 Gap=     0.081 Goal=   None    Shift=    0.000
 RMSDP=2.59D-08 MaxDP=2.43D-07 DE=-2.25D-12 OVMax= 3.62D-07

 Cycle   8  Pass 1  IDiag  1:
 Density matrix breaks symmetry, PCut= 1.00D-04
 Density has only Abelian symmetry.
 E= -74.9889062647478     Delta-E=       -0.000000000001 Rises=F Damp=F
 DIIS: error= 3.91D-09 at cycle   4 NSaved=   4.
 NSaved= 4 IEnMin= 4 EnMin= -74.9889062647478     IErMin= 4 ErrMin= 3.91D-09
 ErrMax= 3.91D-09  0.00D+00 EMaxC= 1.00D-01 BMatC= 2.97D-16 BMatP= 1.38D-12
 IDIUse=1 WtCom= 1.00D+00 WtEn= 0.00D+00
 Coeff-Com:  0.393D-03-0.196D-01-0.221D-01 0.104D+01
 Coeff:      0.393D-03-0.196D-01-0.221D-01 0.104D+01
 Gap=     0.081 Goal=   None    Shift=    0.000
 RMSDP=5.33D-10 MaxDP=8.25D-09 DE=-9.24D-13 OVMax= 5.08D-09

 Density matrix breaks symmetry, PCut= 1.00D-04
 Density has only Abelian symmetry.
 SCF Done:  E(RB3LYP) =  -74.9889062647     A.U. after    8 cycles
            NFock=  8  Conv=0.53D-09     -V/T= 2.0025
 KE= 7.480323982953D+01 PE=-1.778571484444D+02 EE= 2.806500235016D+01
 Leave Link  502 at Sun May 19 14:52:33 2024, MaxMem=  7516192768 cpu:               3.8 elap:               0.1
 (Enter /home/tmj/soft/g16/l801.exe)
 DoSCS=F DFT=T ScalE2(SS,OS)=  1.000000  1.000000
 Range of M.O.s used for correlation:     1    22
 NBasis=    22 NAE=     4 NBE=     4 NFC=     0 NFV=     0
 NROrb=     22 NOA=     4 NOB=     4 NVA=    18 NVB=    18

 **** Warning!!: The smallest alpha delta epsilon is  0.80605414D-01

 Leave Link  801 at Sun May 19 14:52:33 2024, MaxMem=  7516192768 cpu:               0.5 elap:               0.0
 (Enter /home/tmj/soft/g16/l1101.exe)
 Using compressed storage, NAtomX=     1.
 Will process      2 centers per pass.
 R6Disp: Adding Grimme-D3(BJ) dispersion energy 1st derivatives to the gradient.
 Leave Link 1101 at Sun May 19 14:52:33 2024, MaxMem=  7516192768 cpu:               2.0 elap:               0.1
 (Enter /home/tmj/soft/g16/l1102.exe)
 Symmetrizing basis deriv contribution to polar:
 IMax=3 JMax=2 DiffMx= 0.00D+00
 Leave Link 1102 at Sun May 19 14:52:33 2024, MaxMem=  7516192768 cpu:               0.7 elap:               0.0
 (Enter /home/tmj/soft/g16/l1110.exe)
 Forming Gx(P) for the SCF density, NAtomX=     1.
 Integral derivatives from FoFJK, PRISM(SPDF).
 Do as many integral derivatives as possible in FoFJK.
 G2DrvN: MDV=    7516192535.
 Density matrix has lower than full symmetry, NOpUse=  8 NOpAll= 48.
 G2DrvN: will do     2 centers at a time, making    1 passes.
 Calling FoFCou, ICntrl=  3107 FMM=F I1Cent=   0 AccDes= 0.00D+00.
 FoFJK:  IHMeth= 1 ICntrl=    3107 DoSepK=F KAlg= 0 I1Cent=           0 FoldK=F
 IRaf=         0 NMat=       1 IRICut=       1 DoRegI=T DoRafI=F ISym2E= 1 IDoP0=0 IntGTp=1.
 FoFCou: FMM=F IPFlag=           0 FMFlag=      100000 FMFlg1=           0
         NFxFlg=           0 DoJE=F BraDBF=F KetDBF=F FulRan=T
         wScrn=  0.000000 ICntrl=      3107 IOpCl=  0 I1Cent=           0 NGrid=           0
         NMat0=    1 NMatS0=      1 NMatT0=    0 NMatD0=    1 NMtDS0=    0 NMtDT0=    0
 Petite list used in FoFCou.
 End of G2Drv F.D. properties file   721 does not exist.
 End of G2Drv F.D. properties file   722 does not exist.
 End of G2Drv F.D. properties file   788 does not exist.
 Leave Link 1110 at Sun May 19 14:52:33 2024, MaxMem=  7516192768 cpu:               3.9 elap:               0.2
 (Enter /home/tmj/soft/g16/l1002.exe)
 Minotr:  Closed shell wavefunction.
          IDoAtm=1
          Direct CPHF calculation.
          Differentiating once with respect to electric field.
                with respect to dipole field.
          Differentiating once with respect to nuclear coordinates.
 Density matrix has lower than full symmetry, NOpUse=  8 NOpAll= 48.
          Using symmetry in CPHF.
          Requested convergence is 1.0D-08 RMS, and 1.0D-07 maximum.
          Secondary convergence is 1.0D-12 RMS, and 1.0D-12 maximum.
          NewPWx=T KeepS1=F KeepF1=F KeepIn=T MapXYZ=F SortEE=F KeepMc=T.
          299 words used for storage of precomputed grid.
 Keep R1 ints in memory in symmetry-blocked form, NReq=24106832.
 FoFCou: FMM=F IPFlag=           0 FMFlag=           0 FMFlg1=           0
         NFxFlg=           0 DoJE=F BraDBF=F KetDBF=F FulRan=T
         wScrn=  0.000000 ICntrl=       600 IOpCl=  0 I1Cent=           0 NGrid=           0
         NMat0=    1 NMatS0=    253 NMatT0=    0 NMatD0=    1 NMtDS0=    0 NMtDT0=    0
 Petite list used in FoFCou.
          MDV=    7516192768 using IRadAn=       1.
          Solving linear equations simultaneously, MaxMat=       0.
 FoF2E skips out because all densities are zero.
 CalDSu exits because no D1Ps are significant.
          There are     6 degrees of freedom in the 1st order CPHF.  IDoFFX=6 NUNeed=     3.
      3 vectors produced by pass  0 Test12= 1.20D-15 1.67D-08 XBig12= 1.12D+00 1.03D+00.
 AX will form     3 AO Fock derivatives at one time.
      3 vectors produced by pass  1 Test12= 1.20D-15 1.67D-08 XBig12= 3.27D-02 1.22D-01.
      3 vectors produced by pass  2 Test12= 1.20D-15 1.67D-08 XBig12= 3.21D-05 3.46D-03.
      3 vectors produced by pass  3 Test12= 1.20D-15 1.67D-08 XBig12= 1.03D-08 7.55D-05.
      3 vectors produced by pass  4 Test12= 1.20D-15 1.67D-08 XBig12= 3.50D-12 1.31D-06.
 InvSVY:  IOpt=1 It=  1 EMax= 1.11D-16
 Solved reduced A of dimension    15 with     3 vectors.
 FullF1:  Do perturbations      1 to       3.
 Isotropic polarizability for W=    0.000000        2.70 Bohr**3.
 End of Minotr F.D. properties file   721 does not exist.
 End of Minotr F.D. properties file   722 does not exist.
 End of Minotr F.D. properties file   788 does not exist.
 Leave Link 1002 at Sun May 19 14:52:33 2024, MaxMem=  7516192768 cpu:               4.6 elap:               0.2
 (Enter /home/tmj/soft/g16/l601.exe)
 Copying SCF densities to generalized density rwf, IOpCl= 0 IROHF=0.
 SCF density gives NOpUse=  8 NOpAll= 48.
 Marking SCF density as not fully symmetric.

 **********************************************************************

            Population analysis using the SCF Density.

 **********************************************************************

 Orbital symmetries:
       Occupied  (A1G) (T2G) (?A) (?A)
       Virtual   (?A) (A1G) (?A) (?A) (?A) (?A) (?A) (?A) (A1G)
                 (T2G) (T2G) (T2G) (T2G) (T2G) (T1U) (T1U) (T1U)
                 (A1G)
 Unable to determine electronic state:  partially filled degenerate orbitals.
 Alpha  occ. eigenvalues --  -19.28750  -0.96349  -0.38163  -0.38163
 Alpha virt. eigenvalues --   -0.30102   0.08303   0.14552   0.14678   0.14678
 Alpha virt. eigenvalues --    0.94669   0.96462   0.96462   1.17244   2.69887
 Alpha virt. eigenvalues --    2.69950   2.69950   2.74967   2.74967   4.79123
 Alpha virt. eigenvalues --    4.82741   4.82741  49.56314
          Condensed to atoms (all electrons):
               1
     1  O    8.000000
 Mulliken charges:
               1
     1  O    0.000000
 Sum of Mulliken charges =   0.00000
 Mulliken charges with hydrogens summed into heavy atoms:
               1
     1  O    0.000000
 APT charges:
               1
     1  O    0.000000
 Sum of APT charges =   0.00000
 APT charges with hydrogens summed into heavy atoms:
               1
     1  O    0.000000
 Electronic spatial extent (au):  <R**2>=             11.8587
 Charge=              0.0000 electrons
 Dipole moment (field-independent basis, Debye):
    X=              0.0000    Y=              0.0000    Z=              0.0000  Tot=              0.0000
 Quadrupole moment (field-independent basis, Debye-Ang):
   XX=             -3.7994   YY=             -6.0755   ZZ=             -6.0755
   XY=              0.0000   XZ=             -0.0000   YZ=             -0.0000
 Traceless Quadrupole moment (field-independent basis, Debye-Ang):
   XX=              1.5174   YY=             -0.7587   ZZ=             -0.7587
   XY=              0.0000   XZ=             -0.0000   YZ=             -0.0000
 Octapole moment (field-independent basis, Debye-Ang**2):
  XXX=              0.0000  YYY=              0.0000  ZZZ=              0.0000  XYY=              0.0000
  XXY=              0.0000  XXZ=              0.0000  XZZ=              0.0000  YZZ=              0.0000
  YYZ=              0.0000  XYZ=              0.0000
 Hexadecapole moment (field-independent basis, Debye-Ang**3):
 XXXX=             -2.3224 YYYY=             -5.4098 ZZZZ=             -5.4098 XXXY=              0.0000
 XXXZ=             -0.0000 YYYX=              0.0000 YYYZ=             -0.0000 ZZZX=             -0.0000
 ZZZY=             -0.0000 XXYY=             -1.2887 XXZZ=             -1.2887 YYZZ=             -1.8033
 XXYZ=             -0.0000 YYXZ=             -0.0000 ZZXY=              0.0000
 N-N= 0.000000000000D+00 E-N=-1.778571485368D+02  KE= 7.480323982953D+01
 Symmetry AG   KE= 6.467611572115D+01
 Symmetry B1G  KE= 4.394279149984D-36
 Symmetry B2G  KE= 4.394279149984D-36
 Symmetry B3G  KE= 1.976739148109D-52
 Symmetry AU   KE= 0.000000000000D+00
 Symmetry B1U  KE= 5.063562054190D+00
 Symmetry B2U  KE= 5.063562054190D+00
 Symmetry B3U  KE= 1.898531681472D-32
  Exact polarizability:       2.286      -0.000       2.908       0.000      -0.000       2.908
 Approx polarizability:       3.440      -0.000       2.688      -0.000      -0.000       2.688
 No NMR shielding tensors so no spin-rotation constants.
 Leave Link  601 at Sun May 19 14:52:33 2024, MaxMem=  7516192768 cpu:               2.0 elap:               0.1
 (Enter /home/tmj/soft/g16/l701.exe)
 ... and contract with generalized density number  0.
 Compute integral second derivatives.
 Density matrix has only Abelian symmetry.
 R6Disp: Adding Grimme-D3(BJ) dispersion energy 2nd derivatives to the Hessian.
 Leave Link  701 at Sun May 19 14:52:34 2024, MaxMem=  7516192768 cpu:               3.1 elap:               0.1
 (Enter /home/tmj/soft/g16/l702.exe)
 L702 exits ... SP integral derivatives will be done elsewhere.
 Leave Link  702 at Sun May 19 14:52:34 2024, MaxMem=  7516192768 cpu:               0.5 elap:               0.0
 (Enter /home/tmj/soft/g16/l703.exe)
 Integral derivatives from FoFJK, PRISM(SPDF).
 Compute integral second derivatives, UseDBF=F ICtDFT=           0.
 Density matrix has only Abelian symmetry.
 Calling FoFJK, ICntrl=    100127 FMM=F ISym2X=1 I1Cent= 0 IOpClX= 0 NMat=1 NMatS=1 NMatT=0.
 FoFJK:  IHMeth= 1 ICntrl=  100127 DoSepK=F KAlg= 0 I1Cent=           0 FoldK=F
 IRaf=         0 NMat=       1 IRICut=       1 DoRegI=T DoRafI=F ISym2E= 1 IDoP0=0 IntGTp=1.
 FoFCou: FMM=F IPFlag=           0 FMFlag=      100000 FMFlg1=         800
         NFxFlg=           0 DoJE=F BraDBF=F KetDBF=F FulRan=T
         wScrn=  0.000000 ICntrl=    100127 IOpCl=  0 I1Cent=           0 NGrid=           0
         NMat0=    1 NMatS0=      1 NMatT0=    0 NMatD0=    1 NMtDS0=    0 NMtDT0=    0
 Petite list used in FoFCou.
 Leave Link  703 at Sun May 19 14:52:34 2024, MaxMem=  7516192768 cpu:               7.3 elap:               0.3
 (Enter /home/tmj/soft/g16/l716.exe)
 Dipole        = 0.00000000D+00 0.00000000D+00 0.00000000D+00
 Polarizability= 2.28604316D+00-7.16832805D-13 2.90830377D+00
                 6.41131462D-13-4.25895569D-23 2.90830377D+00
 Full mass-weighted force constant matrix:
 Low frequencies ---    0.0017    0.0017    0.0017
 Diagonal vibrational polarizability:
        0.0000000       0.0000000       0.0000000
 Harmonic frequencies (cm**-1), IR intensities (KM/Mole), Raman scattering
 activities (A**4/AMU), depolarization ratios for plane and unpolarized
 incident light, reduced masses (AMU), force constants (mDyne/A),
 and normal coordinates:

 -------------------
 - Thermochemistry -
 -------------------
 Temperature   298.150 Kelvin.  Pressure   1.00000 Atm.
 Atom     1 has atomic number  8 and mass  15.99491
 Molecular mass:    15.99491 amu.
 Zero-point vibrational energy          0.0 (Joules/Mol)
                                    0.00000 (Kcal/Mol)
 Vibrational temperatures: 
          (Kelvin)
 
 Zero-point correction=                           0.000000 (Hartree/Particle)
 Thermal correction to Energy=                    0.001416
 Thermal correction to Enthalpy=                  0.002360
 Thermal correction to Gibbs Free Energy=        -0.013915
 Sum of electronic and zero-point Energies=            -74.988906
 Sum of electronic and thermal Energies=               -74.987490
 Sum of electronic and thermal Enthalpies=             -74.986546
 Sum of electronic and thermal Free Energies=          -75.002821
 
                     E (Thermal)             CV                S
                      KCal/Mol        Cal/Mol-Kelvin    Cal/Mol-Kelvin
 Total                    0.889              2.981             34.254
 Electronic               0.000              0.000              0.000
 Translational            0.889              2.981             34.254
 Rotational               0.000              0.000              0.000
 Vibrational              0.000              0.000              0.000
                       Q            Log10(Q)             Ln(Q)
 Total Bot       0.251436D+07          6.400427         14.737527
 Total V=0       0.251436D+07          6.400427         14.737527
 Vib (Bot)       0.100000D+01          0.000000          0.000000
 Vib (V=0)       0.100000D+01          0.000000          0.000000
 Electronic      0.100000D+01          0.000000          0.000000
 Translational   0.251436D+07          6.400427         14.737527
 Rotational      0.100000D+01          0.000000          0.000000
 ***** Axes restored to original set *****
 -------------------------------------------------------------------
 Center     Atomic                   Forces (Hartrees/Bohr)
 Number     Number              X              Y              Z
 -------------------------------------------------------------------
      1        8          -0.000000000   -0.000000000   -0.000000000
 -------------------------------------------------------------------
 Cartesian Forces:  Max     0.000000000 RMS     0.000000000
 Z-matrix is all fixed cartesians, so copy forces.
 Force constants in Cartesian coordinates: 
                1             2             3 
      1  0.000000D+00
      2  0.000000D+00  0.000000D+00
      3  0.000000D+00  0.000000D+00  0.000000D+00
 Leave Link  716 at Sun May 19 14:52:34 2024, MaxMem=  7516192768 cpu:               0.6 elap:               0.0
 (Enter /home/tmj/soft/g16/l103.exe)

 GradGradGradGradGradGradGradGradGradGradGradGradGradGradGradGradGradGrad
 Berny optimization.
 Search for a local minimum.
 Step number   1 out of a maximum of    2
 All quantities printed in internal units (Hartrees-Bohrs-Radians)
 Second derivative matrix not updated -- analytic derivatives used.
 The second derivative matrix:
                          X1        Y1        Z1
           X1           0.00000
           Y1          -0.00000   0.00000
           Z1          -0.00000  -0.00000   0.00000
 ITU=  0
     Eigenvalues --- 
 Angle between quadratic step and forces=  90.00 degrees.
 Linear search not attempted -- first point.
 B after Tr=     0.000000    0.000000    0.000000
         Rot=    1.000000    0.000000    0.000000    0.000000 Ang=   0.00 deg.
 Variable       Old X    -DE/DX   Delta X   Delta X   Delta X     New X
                                 (Linear)    (Quad)   (Total)
    X1        0.00000  -0.00000   0.00000   0.00000   0.00000   0.00000
    Y1        0.00000  -0.00000   0.00000   0.00000   0.00000   0.00000
    Z1        0.00000  -0.00000   0.00000   0.00000   0.00000   0.00000
         Item               Value     Threshold  Converged?
 Maximum Force            0.000000     0.000450     YES
 RMS     Force            0.000000     0.000300     YES
 Maximum Displacement     0.000000     0.001800     YES
 RMS     Displacement     0.000000     0.001200     YES
 Predicted change in Energy=-0.000000D+00
 Optimization completed.
    -- Stationary point found.
 GradGradGradGradGradGradGradGradGradGradGradGradGradGradGradGradGradGrad

 Leave Link  103 at Sun May 19 14:52:34 2024, MaxMem=  7516192768 cpu:               0.5 elap:               0.0
 (Enter /home/tmj/soft/g16/l9999.exe)
 Dipole is zero, so no output in dipole orientation.

 ----------------------------------------------------------------------

 Electric dipole moment (input orientation):
 (Debye = 10**-18 statcoulomb cm , SI units = C m)
                  (au)            (Debye)         (10**-30 SI)
   Tot        0.000000D+00      0.000000D+00      0.000000D+00
   x          0.000000D+00      0.000000D+00      0.000000D+00
   y          0.000000D+00      0.000000D+00      0.000000D+00
   z          0.000000D+00      0.000000D+00      0.000000D+00

 Dipole polarizability, Alpha (input orientation).
 (esu units = cm**3 , SI units = C**2 m**2 J**-1)
 Alpha(0;0):
               (au)            (10**-24 esu)      (10**-40 SI)
   iso        0.270088D+01      0.400230D+00      0.445316D+00
   aniso      0.622261D+00      0.922095D-01      0.102597D+00
   xx         0.290830D+01      0.430966D+00      0.479515D+00
   yx         0.000000D+00      0.000000D+00      0.000000D+00
   yy         0.290830D+01      0.430966D+00      0.479515D+00
   zx         0.000000D+00      0.000000D+00      0.000000D+00
   zy         0.000000D+00      0.000000D+00      0.000000D+00
   zz         0.228604D+01      0.338757D+00      0.376918D+00

 ----------------------------------------------------------------------
 Unable to Open any file for archive entry.
 1\1\GINC-TMJ\Freq\RB3LYP\6-311+G(d,p)\O1\TMJ\19-May-2024\0\\#p freq b3
 lyp/6-311+g** em=gd3bj\\Title: O-b3lyp-d3-6-311+g**\\0,1\O,0.,0.,0.\\V
 ersion=ES64L-G16RevC.01\HF=-74.9889063\RMSD=5.331e-10\RMSF=0.000e+00\T
 hermal=0.0014163\ETot=-74.98749\HTot=-74.9865458\GTot=-75.0028212\Dipo
 le=0.,0.,0.\DipoleDeriv=0.,0.,0.,0.,0.,0.,0.,0.,0.\Polar=2.9083038,0.,
 2.9083038,0.,0.,2.2860432\Quadrupole=-0.5640699,-0.5640699,1.1281397,0
 .,0.,0.\PG=OH [O(O1)]\NImag=0\\0.,0.,0.,0.,0.,0.\\0.,0.,0.\\\@
 The archive entry for this job was punched.


 GARBAGE IN, GARBAGE OUT
 Job cpu time:       0 days  0 hours  0 minutes 44.8 seconds.
 Elapsed time:       0 days  0 hours  0 minutes  1.8 seconds.
 File lengths (MBytes):  RWF=      6 Int=      0 D2E=      0 Chk=      1 Scr=      1
 Normal termination of Gaussian 16 at Sun May 19 14:52:34 2024.
